LAMMPS data file for DGEBA monomer generated by OpenBabel
49 atoms
52 bonds
58 angles

4 atom types
5 bond types
11 angle types

  -8.86247   10.86380 xlo xhi
  -8.86247   10.86380 ylo yhi
  -8.86247   10.86380 zlo zhi



Masses

1 12.0107 # C
2 1.00794 # H
3 15.9994 # OS
4 12.0107 # CA


Atoms

33      1    1        8.24745   -5.10690   -0.01337 #   C
42      1    2        10.08451   -5.32241    1.09726 #   H
43      1    2        10.31526   -4.49712   -0.42872 #   H
36      1    3        9.55994   -3.38409    1.17381 #   O
29      1    4        9.10499   -2.25029    0.56724 #   C
28      1    4        9.07947   -2.00094   -0.79950 #   C
39      1    2        9.48805   -2.71095   -1.51195 #   H
27      1    4        8.49644   -0.82525   -1.29712 #   C
38      1    2        8.46633   -0.69413   -2.37426 #   H
26      1    4        7.93850    0.12947   -0.43003 #   C
1       1    1        7.14400    1.36648   -0.92191 #   C
2       1    4        5.71516    1.31926   -0.31715 #   CA
3       1    4        4.92266    0.16598   -0.51432 #   CA
14      1    2        5.28970   -0.65239   -1.13155 #   H
4       1    4        3.69765    0.00553    0.13479 #   CA
15      1    2        3.14104   -0.91902    0.01881 #   H
5       1    4        3.23016    1.01132    0.97142 #   CA
9       1    3        2.10753    0.81362    1.72314 #   O
10      1    1        0.91376    1.02492    0.96315 #   C
18      1    2        1.07095    0.91461   -0.11794 #   H
19      1    2        0.56992    2.04777    1.15380 #   H
11      1    1       -0.11566    0.05983    1.45240 #   C
20      1    2       -0.33787    0.16101    2.50586 #   H
13      1    3       -1.20068   -0.17821    0.54734 #   O
12      1    1       -0.30745   -1.27722    0.78802 #   C
21      1    2       -0.67569   -2.09948    1.38856 #   H
6       1    4        3.96954    2.17310    1.15878 #   CA
16      1    2        3.60951    2.94246    1.83582 #   H
7       1    4        5.19913    2.33222    0.50965 #   CA
17      1    2        5.75672    3.24373    0.70484 #   H
8       1    1        6.98942    1.44115   -2.46203 #   C
23      1    2        7.96326    1.52724   -2.95941 #   H
25      1    2        6.39739    2.31692   -2.75596 #   H
24      1    2        6.48608    0.56042   -2.87716 #   H
32      1    1        7.95625    2.62322   -0.51560 #   C
48      1    2        8.06922    2.71822    0.57057 #   H
49      1    2        7.48066    3.54302   -0.87718 #   H
47      1    2        8.96756    2.59240   -0.94017 #   H
31      1    4        8.05126   -0.10664    0.95317 #   CA
41      1    2        7.64085    0.60286    1.67072 #   H
30      1    4        8.62593   -1.27926    1.44421 #   C
40      1    2        8.66083   -1.45266    2.51587 #   H
34      1    1        8.17820   -6.54989   -0.41506 #   C
44      1    2        7.28575   -6.77196   -0.98811 #   H
37      1    3        8.50563   -7.45935    0.64642 #   O
35      1    1        9.35189   -7.49747   -0.50920 #   C
46      1    2        10.36380   -7.13166  -0.40141 #   H
45      1    2        9.26272   -8.36247   -1.15575 #   H
22      1    2        0.3638    -1.565     -0.014   #   H

Bonds

1       4    1    2 #  C: CA
2       1    2    3 #  CA: CA
3       1    3    4 
4       1    4    5
5       1    5    6
6       1    6    7
7       1    7    2
8       2    5    9 # C:O
9       2    9    10
10      3    10   11 # C:C
11      2    11   13
12      3    11   12
13      2    12   13
14      3    1    8
15      5    4    15
16      5    6    16
17      5    7    17
18      5    10   18
19      5    10   19
20      5    11   20
21      5    12   21
22      5    12   22
23      5    8    23
24      5    8    24
25      5    8    25
26      3    1    32
27      4    1    26
28      1    26   27
29      1    27   28
30      1    29   30
31      1    30   31
32      1    31   26
33      2    29   36
34      2    36   33
35      3    33   34
36      3    34   35
37      2    35   37
38      2    34   37
39      5    27   38
40      5    28   39
41      5    30   40
42      5    31   41
43      5    33   42
44      5    33   43
45      5    34   44 
46      5    35   45
47      5    35   46
48      5    32   47
49      5    32   48
50      5    32   49
51      1    28   29
52      5    14   3



Angles

1   1     1 2 3 # C-CA-CA
2   2     2 3 14 # CA-CA-H
3   3     2 3 4 # CA-CA-CA
4   2      2 7 17
5   1      1 2 7
6   3      3 4 5
7   2      3 4 15
8   2      4 3 14
9   2      15 4 5
10  3      3 2 7
11  3      2 7 6
12  2      17 7 6
13  2      7 6 16
14  3      7 6 5
15  2      5 6 16
16  3      6 5 4
17  7     6 5 9
18  7      9 5 4
19  4      5 9 10
20  5      9 10 18
21  5      9 10 19
22  6      19 10 11
23  6      11 10 18
24  7      10 11 13
25  6      10 11 20
26  6      20 11 12
27  7      12 11 13
28  4      11 13 12
29  5      13 12 21
30  8      21 12 22
31  6      22 12 11
32  8      25 8 23
33  8      23 8 24
34  6      25 8 1
35  6      1 8 24
36  9      2 1 26
37  10      26 1 32
38  11      32 1 8
39  10      8 1 2
40  6      1 32 49
41  8      49 32 48
42  8      48 32 47
43  8      47 32 1
44  1      1 26 27
45  1      1 26 31
46  3      31 26 27
47  3      26 27 28
48  2      26 27 38
49  2      38 27 28
50  3      27 28 29
51  2      27 28 39
52  2      39 28 29
53  3      28 29 30
54  7      28 29 36
55  7      36 29 30
56  2      29 30 40
57  2      40 30 31
58  3      31 30 29




