ITEM: TIMESTEP
0
ITEM: NUMBER OF ATOMS
1323
ITEM: BOX BOUNDS pp pp pp
-8.8624700000000001e+00 5.0316339999999997e+01
-8.8624700000000001e+00 5.0316339999999997e+01
-8.8624700000000001e+00 5.0316339999999997e+01
ITEM: ATOMS id type xs ys zs
33 1 0.289122 0.0634614 0.149532
42 2 0.320165 0.0598197 0.168299
43 2 0.324064 0.0737654 0.142513
36 3 0.311301 0.0925733 0.169592
29 4 0.303613 0.111732 0.159343
28 4 0.303182 0.115946 0.136248
39 2 0.310086 0.103948 0.124209
27 4 0.29333 0.135812 0.127839
38 2 0.292821 0.138028 0.109637
26 4 0.283902 0.151945 0.142491
1 1 0.270476 0.172848 0.134179
2 4 0.246332 0.17205 0.144398
3 4 0.23294 0.152562 0.141067
14 2 0.239143 0.138733 0.130637
4 4 0.21224 0.149851 0.152035
15 2 0.202835 0.134228 0.150075
5 4 0.204341 0.166847 0.166172
9 3 0.18537 0.163506 0.178875
10 1 0.165198 0.167077 0.166033
18 2 0.167854 0.165213 0.147765
19 2 0.159388 0.184361 0.169254
11 1 0.147803 0.150768 0.1743
20 2 0.144048 0.152478 0.192101
13 3 0.129468 0.146746 0.159006
12 1 0.144562 0.128175 0.163073
21 2 0.13834 0.114281 0.173221
6 4 0.216835 0.186478 0.169338
16 2 0.210751 0.199479 0.180779
7 4 0.237612 0.189167 0.15837
17 2 0.247034 0.20457 0.161668
8 1 0.267864 0.17411 0.108154
23 2 0.28432 0.175565 0.0997496
25 2 0.25786 0.188909 0.103187
24 2 0.259359 0.159227 0.101139
32 1 0.284202 0.194085 0.141045
48 2 0.286111 0.19569 0.159399
49 2 0.276165 0.209627 0.134935
47 2 0.301291 0.193564 0.133871
31 4 0.285807 0.147955 0.165864
41 2 0.278872 0.159945 0.177989
30 4 0.295518 0.128141 0.174162
40 2 0.296108 0.125211 0.192271
34 1 0.287952 0.0390778 0.142744
44 2 0.272872 0.0353253 0.13306
37 3 0.293485 0.0237098 0.160681
35 1 0.307785 0.0230657 0.141153
46 2 0.324884 0.0292471 0.142974
45 2 0.306278 0.00844897 0.130228
22 2 0.155905 0.123312 0.149521
474 1 0.289122 0.0634614 0.482865
483 2 0.320165 0.0598197 0.501632
484 2 0.324064 0.0737654 0.475846
477 3 0.311301 0.0925733 0.502926
470 4 0.303613 0.111732 0.492676
469 4 0.303182 0.115946 0.469581
480 2 0.310086 0.103948 0.457542
468 4 0.29333 0.135812 0.461172
479 2 0.292821 0.138028 0.442971
467 4 0.283902 0.151945 0.475824
442 1 0.270476 0.172848 0.467512
443 4 0.246332 0.17205 0.477732
444 4 0.23294 0.152562 0.4744
455 2 0.239143 0.138733 0.46397
445 4 0.21224 0.149851 0.485368
456 2 0.202835 0.134228 0.483409
446 4 0.204341 0.166847 0.499506
450 3 0.18537 0.163506 0.512208
451 1 0.165198 0.167077 0.499366
459 2 0.167854 0.165213 0.481098
460 2 0.159388 0.184361 0.502588
452 1 0.147803 0.150768 0.507633
461 2 0.144048 0.152478 0.525435
454 3 0.129468 0.146746 0.49234
453 1 0.144562 0.128175 0.496407
462 2 0.13834 0.114281 0.506555
447 4 0.216835 0.186478 0.502672
457 2 0.210751 0.199479 0.514112
448 4 0.237612 0.189167 0.491703
458 2 0.247034 0.20457 0.495001
449 1 0.267864 0.17411 0.441488
464 2 0.28432 0.175565 0.433083
466 2 0.25786 0.188909 0.436521
465 2 0.259359 0.159227 0.434473
473 1 0.284202 0.194085 0.474378
489 2 0.286111 0.19569 0.492732
490 2 0.276165 0.209627 0.468268
488 2 0.301291 0.193564 0.467204
472 4 0.285807 0.147955 0.499197
482 2 0.278872 0.159945 0.511323
471 4 0.295518 0.128141 0.507495
481 2 0.296108 0.125211 0.525604
475 1 0.287952 0.0390778 0.476077
485 2 0.272872 0.0353253 0.466394
478 3 0.293485 0.0237098 0.494014
476 1 0.307785 0.0230657 0.474486
487 2 0.324884 0.0292471 0.476308
486 2 0.306278 0.00844897 0.463561
463 2 0.155905 0.123312 0.482854
915 1 0.289122 0.0634614 0.816198
924 2 0.320165 0.0598197 0.834966
925 2 0.324064 0.0737654 0.80918
918 3 0.311301 0.0925733 0.836259
911 4 0.303613 0.111732 0.826009
910 4 0.303182 0.115946 0.802914
921 2 0.310086 0.103948 0.790875
909 4 0.29333 0.135812 0.794505
920 2 0.292821 0.138028 0.776304
908 4 0.283902 0.151945 0.809158
883 1 0.270476 0.172848 0.800846
884 4 0.246332 0.17205 0.811065
885 4 0.23294 0.152562 0.807733
896 2 0.239143 0.138733 0.797303
886 4 0.21224 0.149851 0.818702
897 2 0.202835 0.134228 0.816742
887 4 0.204341 0.166847 0.832839
891 3 0.18537 0.163506 0.845542
892 1 0.165198 0.167077 0.832699
900 2 0.167854 0.165213 0.814431
901 2 0.159388 0.184361 0.835921
893 1 0.147803 0.150768 0.840967
902 2 0.144048 0.152478 0.858768
895 3 0.129468 0.146746 0.825673
894 1 0.144562 0.128175 0.82974
903 2 0.13834 0.114281 0.839888
888 4 0.216835 0.186478 0.836005
898 2 0.210751 0.199479 0.847446
889 4 0.237612 0.189167 0.825036
899 2 0.247034 0.20457 0.828335
890 1 0.267864 0.17411 0.774821
905 2 0.28432 0.175565 0.766416
907 2 0.25786 0.188909 0.769854
906 2 0.259359 0.159227 0.767806
914 1 0.284202 0.194085 0.807712
930 2 0.286111 0.19569 0.826066
931 2 0.276165 0.209627 0.801602
929 2 0.301291 0.193564 0.800537
913 4 0.285807 0.147955 0.832531
923 2 0.278872 0.159945 0.844656
912 4 0.295518 0.128141 0.840828
922 2 0.296108 0.125211 0.858937
916 1 0.287952 0.0390778 0.80941
926 2 0.272872 0.0353253 0.799727
919 3 0.293485 0.0237098 0.827347
917 1 0.307785 0.0230657 0.80782
928 2 0.324884 0.0292471 0.809641
927 2 0.306278 0.00844897 0.796894
904 2 0.155905 0.123312 0.816188
180 1 0.289122 0.396795 0.149532
189 2 0.320165 0.393153 0.168299
190 2 0.324064 0.407099 0.142513
183 3 0.311301 0.425907 0.169592
176 4 0.303613 0.445066 0.159343
175 4 0.303182 0.449279 0.136248
186 2 0.310086 0.437281 0.124209
174 4 0.29333 0.469146 0.127839
185 2 0.292821 0.471361 0.109637
173 4 0.283902 0.485279 0.142491
148 1 0.270476 0.506182 0.134179
149 4 0.246332 0.505384 0.144398
150 4 0.23294 0.485896 0.141067
161 2 0.239143 0.472067 0.130637
151 4 0.21224 0.483184 0.152035
162 2 0.202835 0.467561 0.150075
152 4 0.204341 0.50018 0.166172
156 3 0.18537 0.496839 0.178875
157 1 0.165198 0.50041 0.166033
165 2 0.167854 0.498546 0.147765
166 2 0.159388 0.517694 0.169254
158 1 0.147803 0.484102 0.1743
167 2 0.144048 0.485812 0.192101
160 3 0.129468 0.480079 0.159006
159 1 0.144562 0.461508 0.163073
168 2 0.13834 0.447614 0.173221
153 4 0.216835 0.519812 0.169338
163 2 0.210751 0.532812 0.180779
154 4 0.237612 0.522501 0.15837
164 2 0.247034 0.537903 0.161668
155 1 0.267864 0.507443 0.108154
170 2 0.28432 0.508898 0.0997496
172 2 0.25786 0.522242 0.103187
171 2 0.259359 0.492561 0.101139
179 1 0.284202 0.527418 0.141045
195 2 0.286111 0.529023 0.159399
196 2 0.276165 0.542961 0.134935
194 2 0.301291 0.526897 0.133871
178 4 0.285807 0.481289 0.165864
188 2 0.278872 0.493278 0.177989
177 4 0.295518 0.461474 0.174162
187 2 0.296108 0.458544 0.192271
181 1 0.287952 0.372411 0.142744
191 2 0.272872 0.368659 0.13306
184 3 0.293485 0.357043 0.160681
182 1 0.307785 0.356399 0.141153
193 2 0.324884 0.36258 0.142974
192 2 0.306278 0.341782 0.130228
169 2 0.155905 0.456646 0.149521
621 1 0.289122 0.396795 0.482865
630 2 0.320165 0.393153 0.501632
631 2 0.324064 0.407099 0.475846
624 3 0.311301 0.425907 0.502926
617 4 0.303613 0.445066 0.492676
616 4 0.303182 0.449279 0.469581
627 2 0.310086 0.437281 0.457542
615 4 0.29333 0.469146 0.461172
626 2 0.292821 0.471361 0.442971
614 4 0.283902 0.485279 0.475824
589 1 0.270476 0.506182 0.467512
590 4 0.246332 0.505384 0.477732
591 4 0.23294 0.485896 0.4744
602 2 0.239143 0.472067 0.46397
592 4 0.21224 0.483184 0.485368
603 2 0.202835 0.467561 0.483409
593 4 0.204341 0.50018 0.499506
597 3 0.18537 0.496839 0.512208
598 1 0.165198 0.50041 0.499366
606 2 0.167854 0.498546 0.481098
607 2 0.159388 0.517694 0.502588
599 1 0.147803 0.484102 0.507633
608 2 0.144048 0.485812 0.525435
601 3 0.129468 0.480079 0.49234
600 1 0.144562 0.461508 0.496407
609 2 0.13834 0.447614 0.506555
594 4 0.216835 0.519812 0.502672
604 2 0.210751 0.532812 0.514112
595 4 0.237612 0.522501 0.491703
605 2 0.247034 0.537903 0.495001
596 1 0.267864 0.507443 0.441488
611 2 0.28432 0.508898 0.433083
613 2 0.25786 0.522242 0.436521
612 2 0.259359 0.492561 0.434473
620 1 0.284202 0.527418 0.474378
636 2 0.286111 0.529023 0.492732
637 2 0.276165 0.542961 0.468268
635 2 0.301291 0.526897 0.467204
619 4 0.285807 0.481289 0.499197
629 2 0.278872 0.493278 0.511323
618 4 0.295518 0.461474 0.507495
628 2 0.296108 0.458544 0.525604
622 1 0.287952 0.372411 0.476077
632 2 0.272872 0.368659 0.466394
625 3 0.293485 0.357043 0.494014
623 1 0.307785 0.356399 0.474486
634 2 0.324884 0.36258 0.476308
633 2 0.306278 0.341782 0.463561
610 2 0.155905 0.456646 0.482854
1062 1 0.289122 0.396795 0.816198
1071 2 0.320165 0.393153 0.834966
1072 2 0.324064 0.407099 0.80918
1065 3 0.311301 0.425907 0.836259
1058 4 0.303613 0.445066 0.826009
1057 4 0.303182 0.449279 0.802914
1068 2 0.310086 0.437281 0.790875
1056 4 0.29333 0.469146 0.794505
1067 2 0.292821 0.471361 0.776304
1055 4 0.283902 0.485279 0.809158
1030 1 0.270476 0.506182 0.800846
1031 4 0.246332 0.505384 0.811065
1032 4 0.23294 0.485896 0.807733
1043 2 0.239143 0.472067 0.797303
1033 4 0.21224 0.483184 0.818702
1044 2 0.202835 0.467561 0.816742
1034 4 0.204341 0.50018 0.832839
1038 3 0.18537 0.496839 0.845542
1039 1 0.165198 0.50041 0.832699
1047 2 0.167854 0.498546 0.814431
1048 2 0.159388 0.517694 0.835921
1040 1 0.147803 0.484102 0.840967
1049 2 0.144048 0.485812 0.858768
1042 3 0.129468 0.480079 0.825673
1041 1 0.144562 0.461508 0.82974
1050 2 0.13834 0.447614 0.839888
1035 4 0.216835 0.519812 0.836005
1045 2 0.210751 0.532812 0.847446
1036 4 0.237612 0.522501 0.825036
1046 2 0.247034 0.537903 0.828335
1037 1 0.267864 0.507443 0.774821
1052 2 0.28432 0.508898 0.766416
1054 2 0.25786 0.522242 0.769854
1053 2 0.259359 0.492561 0.767806
1061 1 0.284202 0.527418 0.807712
1077 2 0.286111 0.529023 0.826066
1078 2 0.276165 0.542961 0.801602
1076 2 0.301291 0.526897 0.800537
1060 4 0.285807 0.481289 0.832531
1070 2 0.278872 0.493278 0.844656
1059 4 0.295518 0.461474 0.840828
1069 2 0.296108 0.458544 0.858937
1063 1 0.287952 0.372411 0.80941
1073 2 0.272872 0.368659 0.799727
1066 3 0.293485 0.357043 0.827347
1064 1 0.307785 0.356399 0.80782
1075 2 0.324884 0.36258 0.809641
1074 2 0.306278 0.341782 0.796894
1051 2 0.155905 0.456646 0.816188
327 1 0.289122 0.730128 0.149532
336 2 0.320165 0.726486 0.168299
337 2 0.324064 0.740432 0.142513
330 3 0.311301 0.75924 0.169592
323 4 0.303613 0.778399 0.159343
322 4 0.303182 0.782612 0.136248
333 2 0.310086 0.770615 0.124209
321 4 0.29333 0.802479 0.127839
332 2 0.292821 0.804695 0.109637
320 4 0.283902 0.818612 0.142491
295 1 0.270476 0.839515 0.134179
296 4 0.246332 0.838717 0.144398
297 4 0.23294 0.819229 0.141067
308 2 0.239143 0.8054 0.130637
298 4 0.21224 0.816518 0.152035
309 2 0.202835 0.800895 0.150075
299 4 0.204341 0.833513 0.166172
303 3 0.18537 0.830173 0.178875
304 1 0.165198 0.833743 0.166033
312 2 0.167854 0.831879 0.147765
313 2 0.159388 0.851027 0.169254
305 1 0.147803 0.817435 0.1743
314 2 0.144048 0.819145 0.192101
307 3 0.129468 0.813413 0.159006
306 1 0.144562 0.794842 0.163073
315 2 0.13834 0.780947 0.173221
300 4 0.216835 0.853145 0.169338
310 2 0.210751 0.866146 0.180779
301 4 0.237612 0.855834 0.15837
311 2 0.247034 0.871237 0.161668
302 1 0.267864 0.840777 0.108154
317 2 0.28432 0.842231 0.0997496
319 2 0.25786 0.855575 0.103187
318 2 0.259359 0.825894 0.101139
326 1 0.284202 0.860751 0.141045
342 2 0.286111 0.862356 0.159399
343 2 0.276165 0.876294 0.134935
341 2 0.301291 0.86023 0.133871
325 4 0.285807 0.814622 0.165864
335 2 0.278872 0.826611 0.177989
324 4 0.295518 0.794807 0.174162
334 2 0.296108 0.791877 0.192271
328 1 0.287952 0.705745 0.142744
338 2 0.272872 0.701992 0.13306
331 3 0.293485 0.690377 0.160681
329 1 0.307785 0.689732 0.141153
340 2 0.324884 0.695914 0.142974
339 2 0.306278 0.675116 0.130228
316 2 0.155905 0.789979 0.149521
768 1 0.289122 0.730128 0.482865
777 2 0.320165 0.726486 0.501632
778 2 0.324064 0.740432 0.475846
771 3 0.311301 0.75924 0.502926
764 4 0.303613 0.778399 0.492676
763 4 0.303182 0.782612 0.469581
774 2 0.310086 0.770615 0.457542
762 4 0.29333 0.802479 0.461172
773 2 0.292821 0.804695 0.442971
761 4 0.283902 0.818612 0.475824
736 1 0.270476 0.839515 0.467512
737 4 0.246332 0.838717 0.477732
738 4 0.23294 0.819229 0.4744
749 2 0.239143 0.8054 0.46397
739 4 0.21224 0.816518 0.485368
750 2 0.202835 0.800895 0.483409
740 4 0.204341 0.833513 0.499506
744 3 0.18537 0.830173 0.512208
745 1 0.165198 0.833743 0.499366
753 2 0.167854 0.831879 0.481098
754 2 0.159388 0.851027 0.502588
746 1 0.147803 0.817435 0.507633
755 2 0.144048 0.819145 0.525435
748 3 0.129468 0.813413 0.49234
747 1 0.144562 0.794842 0.496407
756 2 0.13834 0.780947 0.506555
741 4 0.216835 0.853145 0.502672
751 2 0.210751 0.866146 0.514112
742 4 0.237612 0.855834 0.491703
752 2 0.247034 0.871237 0.495001
743 1 0.267864 0.840777 0.441488
758 2 0.28432 0.842231 0.433083
760 2 0.25786 0.855575 0.436521
759 2 0.259359 0.825894 0.434473
767 1 0.284202 0.860751 0.474378
783 2 0.286111 0.862356 0.492732
784 2 0.276165 0.876294 0.468268
782 2 0.301291 0.86023 0.467204
766 4 0.285807 0.814622 0.499197
776 2 0.278872 0.826611 0.511323
765 4 0.295518 0.794807 0.507495
775 2 0.296108 0.791877 0.525604
769 1 0.287952 0.705745 0.476077
779 2 0.272872 0.701992 0.466394
772 3 0.293485 0.690377 0.494014
770 1 0.307785 0.689732 0.474486
781 2 0.324884 0.695914 0.476308
780 2 0.306278 0.675116 0.463561
757 2 0.155905 0.789979 0.482854
1209 1 0.289122 0.730128 0.816198
1218 2 0.320165 0.726486 0.834966
1219 2 0.324064 0.740432 0.80918
1212 3 0.311301 0.75924 0.836259
1205 4 0.303613 0.778399 0.826009
1204 4 0.303182 0.782612 0.802914
1215 2 0.310086 0.770615 0.790875
1203 4 0.29333 0.802479 0.794505
1214 2 0.292821 0.804695 0.776304
1202 4 0.283902 0.818612 0.809158
1177 1 0.270476 0.839515 0.800846
1178 4 0.246332 0.838717 0.811065
1179 4 0.23294 0.819229 0.807733
1190 2 0.239143 0.8054 0.797303
1180 4 0.21224 0.816518 0.818702
1191 2 0.202835 0.800895 0.816742
1181 4 0.204341 0.833513 0.832839
1185 3 0.18537 0.830173 0.845542
1186 1 0.165198 0.833743 0.832699
1194 2 0.167854 0.831879 0.814431
1195 2 0.159388 0.851027 0.835921
1187 1 0.147803 0.817435 0.840967
1196 2 0.144048 0.819145 0.858768
1189 3 0.129468 0.813413 0.825673
1188 1 0.144562 0.794842 0.82974
1197 2 0.13834 0.780947 0.839888
1182 4 0.216835 0.853145 0.836005
1192 2 0.210751 0.866146 0.847446
1183 4 0.237612 0.855834 0.825036
1193 2 0.247034 0.871237 0.828335
1184 1 0.267864 0.840777 0.774821
1199 2 0.28432 0.842231 0.766416
1201 2 0.25786 0.855575 0.769854
1200 2 0.259359 0.825894 0.767806
1208 1 0.284202 0.860751 0.807712
1224 2 0.286111 0.862356 0.826066
1225 2 0.276165 0.876294 0.801602
1223 2 0.301291 0.86023 0.800537
1207 4 0.285807 0.814622 0.832531
1217 2 0.278872 0.826611 0.844656
1206 4 0.295518 0.794807 0.840828
1216 2 0.296108 0.791877 0.858937
1210 1 0.287952 0.705745 0.80941
1220 2 0.272872 0.701992 0.799727
1213 3 0.293485 0.690377 0.827347
1211 1 0.307785 0.689732 0.80782
1222 2 0.324884 0.695914 0.809641
1221 2 0.306278 0.675116 0.796894
1198 2 0.155905 0.789979 0.816188
82 1 0.622456 0.0634614 0.149532
91 2 0.653498 0.0598197 0.168299
92 2 0.657397 0.0737654 0.142513
85 3 0.644634 0.0925733 0.169592
78 4 0.636946 0.111732 0.159343
77 4 0.636515 0.115946 0.136248
88 2 0.643419 0.103948 0.124209
76 4 0.626663 0.135812 0.127839
87 2 0.626154 0.138028 0.109637
75 4 0.617235 0.151945 0.142491
50 1 0.60381 0.172848 0.134179
51 4 0.579665 0.17205 0.144398
52 4 0.566274 0.152562 0.141067
63 2 0.572476 0.138733 0.130637
53 4 0.545573 0.149851 0.152035
64 2 0.536168 0.134228 0.150075
54 4 0.537674 0.166847 0.166172
58 3 0.518704 0.163506 0.178875
59 1 0.498531 0.167077 0.166033
67 2 0.501188 0.165213 0.147765
68 2 0.492721 0.184361 0.169254
60 1 0.481136 0.150768 0.1743
69 2 0.477382 0.152478 0.192101
62 3 0.462802 0.146746 0.159006
61 1 0.477896 0.128175 0.163073
70 2 0.471673 0.114281 0.173221
55 4 0.550168 0.186478 0.169338
65 2 0.544084 0.199479 0.180779
56 4 0.570945 0.189167 0.15837
66 2 0.580368 0.20457 0.161668
57 1 0.601198 0.17411 0.108154
72 2 0.617654 0.175565 0.0997496
74 2 0.591194 0.188909 0.103187
73 2 0.592692 0.159227 0.101139
81 1 0.617535 0.194085 0.141045
97 2 0.619444 0.19569 0.159399
98 2 0.609499 0.209627 0.134935
96 2 0.634624 0.193564 0.133871
80 4 0.619141 0.147955 0.165864
90 2 0.612205 0.159945 0.177989
79 4 0.628851 0.128141 0.174162
89 2 0.629441 0.125211 0.192271
83 1 0.621286 0.0390778 0.142744
93 2 0.606205 0.0353253 0.13306
86 3 0.626818 0.0237098 0.160681
84 1 0.641119 0.0230657 0.141153
95 2 0.658218 0.0292471 0.142974
94 2 0.639612 0.00844897 0.130228
71 2 0.489238 0.123312 0.149521
523 1 0.622456 0.0634614 0.482865
532 2 0.653498 0.0598197 0.501632
533 2 0.657397 0.0737654 0.475846
526 3 0.644634 0.0925733 0.502926
519 4 0.636946 0.111732 0.492676
518 4 0.636515 0.115946 0.469581
529 2 0.643419 0.103948 0.457542
517 4 0.626663 0.135812 0.461172
528 2 0.626154 0.138028 0.442971
516 4 0.617235 0.151945 0.475824
491 1 0.60381 0.172848 0.467512
492 4 0.579665 0.17205 0.477732
493 4 0.566274 0.152562 0.4744
504 2 0.572476 0.138733 0.46397
494 4 0.545573 0.149851 0.485368
505 2 0.536168 0.134228 0.483409
495 4 0.537674 0.166847 0.499506
499 3 0.518704 0.163506 0.512208
500 1 0.498531 0.167077 0.499366
508 2 0.501188 0.165213 0.481098
509 2 0.492721 0.184361 0.502588
501 1 0.481136 0.150768 0.507633
510 2 0.477382 0.152478 0.525435
503 3 0.462802 0.146746 0.49234
502 1 0.477896 0.128175 0.496407
511 2 0.471673 0.114281 0.506555
496 4 0.550168 0.186478 0.502672
506 2 0.544084 0.199479 0.514112
497 4 0.570945 0.189167 0.491703
507 2 0.580368 0.20457 0.495001
498 1 0.601198 0.17411 0.441488
513 2 0.617654 0.175565 0.433083
515 2 0.591194 0.188909 0.436521
514 2 0.592692 0.159227 0.434473
522 1 0.617535 0.194085 0.474378
538 2 0.619444 0.19569 0.492732
539 2 0.609499 0.209627 0.468268
537 2 0.634624 0.193564 0.467204
521 4 0.619141 0.147955 0.499197
531 2 0.612205 0.159945 0.511323
520 4 0.628851 0.128141 0.507495
530 2 0.629441 0.125211 0.525604
524 1 0.621286 0.0390778 0.476077
534 2 0.606205 0.0353253 0.466394
527 3 0.626818 0.0237098 0.494014
525 1 0.641119 0.0230657 0.474486
536 2 0.658218 0.0292471 0.476308
535 2 0.639612 0.00844897 0.463561
512 2 0.489238 0.123312 0.482854
964 1 0.622456 0.0634614 0.816198
973 2 0.653498 0.0598197 0.834966
974 2 0.657397 0.0737654 0.80918
967 3 0.644634 0.0925733 0.836259
960 4 0.636946 0.111732 0.826009
959 4 0.636515 0.115946 0.802914
970 2 0.643419 0.103948 0.790875
958 4 0.626663 0.135812 0.794505
969 2 0.626154 0.138028 0.776304
957 4 0.617235 0.151945 0.809158
932 1 0.60381 0.172848 0.800846
933 4 0.579665 0.17205 0.811065
934 4 0.566274 0.152562 0.807733
945 2 0.572476 0.138733 0.797303
935 4 0.545573 0.149851 0.818702
946 2 0.536168 0.134228 0.816742
936 4 0.537674 0.166847 0.832839
940 3 0.518704 0.163506 0.845542
941 1 0.498531 0.167077 0.832699
949 2 0.501188 0.165213 0.814431
950 2 0.492721 0.184361 0.835921
942 1 0.481136 0.150768 0.840967
951 2 0.477382 0.152478 0.858768
944 3 0.462802 0.146746 0.825673
943 1 0.477896 0.128175 0.82974
952 2 0.471673 0.114281 0.839888
937 4 0.550168 0.186478 0.836005
947 2 0.544084 0.199479 0.847446
938 4 0.570945 0.189167 0.825036
948 2 0.580368 0.20457 0.828335
939 1 0.601198 0.17411 0.774821
954 2 0.617654 0.175565 0.766416
956 2 0.591194 0.188909 0.769854
955 2 0.592692 0.159227 0.767806
963 1 0.617535 0.194085 0.807712
979 2 0.619444 0.19569 0.826066
980 2 0.609499 0.209627 0.801602
978 2 0.634624 0.193564 0.800537
962 4 0.619141 0.147955 0.832531
972 2 0.612205 0.159945 0.844656
961 4 0.628851 0.128141 0.840828
971 2 0.629441 0.125211 0.858937
965 1 0.621286 0.0390778 0.80941
975 2 0.606205 0.0353253 0.799727
968 3 0.626818 0.0237098 0.827347
966 1 0.641119 0.0230657 0.80782
977 2 0.658218 0.0292471 0.809641
976 2 0.639612 0.00844897 0.796894
953 2 0.489238 0.123312 0.816188
229 1 0.622456 0.396795 0.149532
238 2 0.653498 0.393153 0.168299
239 2 0.657397 0.407099 0.142513
232 3 0.644634 0.425907 0.169592
225 4 0.636946 0.445066 0.159343
224 4 0.636515 0.449279 0.136248
235 2 0.643419 0.437281 0.124209
223 4 0.626663 0.469146 0.127839
234 2 0.626154 0.471361 0.109637
222 4 0.617235 0.485279 0.142491
197 1 0.60381 0.506182 0.134179
198 4 0.579665 0.505384 0.144398
199 4 0.566274 0.485896 0.141067
210 2 0.572476 0.472067 0.130637
200 4 0.545573 0.483184 0.152035
211 2 0.536168 0.467561 0.150075
201 4 0.537674 0.50018 0.166172
205 3 0.518704 0.496839 0.178875
206 1 0.498531 0.50041 0.166033
214 2 0.501188 0.498546 0.147765
215 2 0.492721 0.517694 0.169254
207 1 0.481136 0.484102 0.1743
216 2 0.477382 0.485812 0.192101
209 3 0.462802 0.480079 0.159006
208 1 0.477896 0.461508 0.163073
217 2 0.471673 0.447614 0.173221
202 4 0.550168 0.519812 0.169338
212 2 0.544084 0.532812 0.180779
203 4 0.570945 0.522501 0.15837
213 2 0.580368 0.537903 0.161668
204 1 0.601198 0.507443 0.108154
219 2 0.617654 0.508898 0.0997496
221 2 0.591194 0.522242 0.103187
220 2 0.592692 0.492561 0.101139
228 1 0.617535 0.527418 0.141045
244 2 0.619444 0.529023 0.159399
245 2 0.609499 0.542961 0.134935
243 2 0.634624 0.526897 0.133871
227 4 0.619141 0.481289 0.165864
237 2 0.612205 0.493278 0.177989
226 4 0.628851 0.461474 0.174162
236 2 0.629441 0.458544 0.192271
230 1 0.621286 0.372411 0.142744
240 2 0.606205 0.368659 0.13306
233 3 0.626818 0.357043 0.160681
231 1 0.641119 0.356399 0.141153
242 2 0.658218 0.36258 0.142974
241 2 0.639612 0.341782 0.130228
218 2 0.489238 0.456646 0.149521
670 1 0.622456 0.396795 0.482865
679 2 0.653498 0.393153 0.501632
680 2 0.657397 0.407099 0.475846
673 3 0.644634 0.425907 0.502926
666 4 0.636946 0.445066 0.492676
665 4 0.636515 0.449279 0.469581
676 2 0.643419 0.437281 0.457542
664 4 0.626663 0.469146 0.461172
675 2 0.626154 0.471361 0.442971
663 4 0.617235 0.485279 0.475824
638 1 0.60381 0.506182 0.467512
639 4 0.579665 0.505384 0.477732
640 4 0.566274 0.485896 0.4744
651 2 0.572476 0.472067 0.46397
641 4 0.545573 0.483184 0.485368
652 2 0.536168 0.467561 0.483409
642 4 0.537674 0.50018 0.499506
646 3 0.518704 0.496839 0.512208
647 1 0.498531 0.50041 0.499366
655 2 0.501188 0.498546 0.481098
656 2 0.492721 0.517694 0.502588
648 1 0.481136 0.484102 0.507633
657 2 0.477382 0.485812 0.525435
650 3 0.462802 0.480079 0.49234
649 1 0.477896 0.461508 0.496407
658 2 0.471673 0.447614 0.506555
643 4 0.550168 0.519812 0.502672
653 2 0.544084 0.532812 0.514112
644 4 0.570945 0.522501 0.491703
654 2 0.580368 0.537903 0.495001
645 1 0.601198 0.507443 0.441488
660 2 0.617654 0.508898 0.433083
662 2 0.591194 0.522242 0.436521
661 2 0.592692 0.492561 0.434473
669 1 0.617535 0.527418 0.474378
685 2 0.619444 0.529023 0.492732
686 2 0.609499 0.542961 0.468268
684 2 0.634624 0.526897 0.467204
668 4 0.619141 0.481289 0.499197
678 2 0.612205 0.493278 0.511323
667 4 0.628851 0.461474 0.507495
677 2 0.629441 0.458544 0.525604
671 1 0.621286 0.372411 0.476077
681 2 0.606205 0.368659 0.466394
674 3 0.626818 0.357043 0.494014
672 1 0.641119 0.356399 0.474486
683 2 0.658218 0.36258 0.476308
682 2 0.639612 0.341782 0.463561
659 2 0.489238 0.456646 0.482854
1111 1 0.622456 0.396795 0.816198
1120 2 0.653498 0.393153 0.834966
1121 2 0.657397 0.407099 0.80918
1114 3 0.644634 0.425907 0.836259
1107 4 0.636946 0.445066 0.826009
1106 4 0.636515 0.449279 0.802914
1117 2 0.643419 0.437281 0.790875
1105 4 0.626663 0.469146 0.794505
1116 2 0.626154 0.471361 0.776304
1104 4 0.617235 0.485279 0.809158
1079 1 0.60381 0.506182 0.800846
1080 4 0.579665 0.505384 0.811065
1081 4 0.566274 0.485896 0.807733
1092 2 0.572476 0.472067 0.797303
1082 4 0.545573 0.483184 0.818702
1093 2 0.536168 0.467561 0.816742
1083 4 0.537674 0.50018 0.832839
1087 3 0.518704 0.496839 0.845542
1088 1 0.498531 0.50041 0.832699
1096 2 0.501188 0.498546 0.814431
1097 2 0.492721 0.517694 0.835921
1089 1 0.481136 0.484102 0.840967
1098 2 0.477382 0.485812 0.858768
1091 3 0.462802 0.480079 0.825673
1090 1 0.477896 0.461508 0.82974
1099 2 0.471673 0.447614 0.839888
1084 4 0.550168 0.519812 0.836005
1094 2 0.544084 0.532812 0.847446
1085 4 0.570945 0.522501 0.825036
1095 2 0.580368 0.537903 0.828335
1086 1 0.601198 0.507443 0.774821
1101 2 0.617654 0.508898 0.766416
1103 2 0.591194 0.522242 0.769854
1102 2 0.592692 0.492561 0.767806
1110 1 0.617535 0.527418 0.807712
1126 2 0.619444 0.529023 0.826066
1127 2 0.609499 0.542961 0.801602
1125 2 0.634624 0.526897 0.800537
1109 4 0.619141 0.481289 0.832531
1119 2 0.612205 0.493278 0.844656
1108 4 0.628851 0.461474 0.840828
1118 2 0.629441 0.458544 0.858937
1112 1 0.621286 0.372411 0.80941
1122 2 0.606205 0.368659 0.799727
1115 3 0.626818 0.357043 0.827347
1113 1 0.641119 0.356399 0.80782
1124 2 0.658218 0.36258 0.809641
1123 2 0.639612 0.341782 0.796894
1100 2 0.489238 0.456646 0.816188
376 1 0.622456 0.730128 0.149532
385 2 0.653498 0.726486 0.168299
386 2 0.657397 0.740432 0.142513
379 3 0.644634 0.75924 0.169592
372 4 0.636946 0.778399 0.159343
371 4 0.636515 0.782612 0.136248
382 2 0.643419 0.770615 0.124209
370 4 0.626663 0.802479 0.127839
381 2 0.626154 0.804695 0.109637
369 4 0.617235 0.818612 0.142491
344 1 0.60381 0.839515 0.134179
345 4 0.579665 0.838717 0.144398
346 4 0.566274 0.819229 0.141067
357 2 0.572476 0.8054 0.130637
347 4 0.545573 0.816518 0.152035
358 2 0.536168 0.800895 0.150075
348 4 0.537674 0.833513 0.166172
352 3 0.518704 0.830173 0.178875
353 1 0.498531 0.833743 0.166033
361 2 0.501188 0.831879 0.147765
362 2 0.492721 0.851027 0.169254
354 1 0.481136 0.817435 0.1743
363 2 0.477382 0.819145 0.192101
356 3 0.462802 0.813413 0.159006
355 1 0.477896 0.794842 0.163073
364 2 0.471673 0.780947 0.173221
349 4 0.550168 0.853145 0.169338
359 2 0.544084 0.866146 0.180779
350 4 0.570945 0.855834 0.15837
360 2 0.580368 0.871237 0.161668
351 1 0.601198 0.840777 0.108154
366 2 0.617654 0.842231 0.0997496
368 2 0.591194 0.855575 0.103187
367 2 0.592692 0.825894 0.101139
375 1 0.617535 0.860751 0.141045
391 2 0.619444 0.862356 0.159399
392 2 0.609499 0.876294 0.134935
390 2 0.634624 0.86023 0.133871
374 4 0.619141 0.814622 0.165864
384 2 0.612205 0.826611 0.177989
373 4 0.628851 0.794807 0.174162
383 2 0.629441 0.791877 0.192271
377 1 0.621286 0.705745 0.142744
387 2 0.606205 0.701992 0.13306
380 3 0.626818 0.690377 0.160681
378 1 0.641119 0.689732 0.141153
389 2 0.658218 0.695914 0.142974
388 2 0.639612 0.675116 0.130228
365 2 0.489238 0.789979 0.149521
817 1 0.622456 0.730128 0.482865
826 2 0.653498 0.726486 0.501632
827 2 0.657397 0.740432 0.475846
820 3 0.644634 0.75924 0.502926
813 4 0.636946 0.778399 0.492676
812 4 0.636515 0.782612 0.469581
823 2 0.643419 0.770615 0.457542
811 4 0.626663 0.802479 0.461172
822 2 0.626154 0.804695 0.442971
810 4 0.617235 0.818612 0.475824
785 1 0.60381 0.839515 0.467512
786 4 0.579665 0.838717 0.477732
787 4 0.566274 0.819229 0.4744
798 2 0.572476 0.8054 0.46397
788 4 0.545573 0.816518 0.485368
799 2 0.536168 0.800895 0.483409
789 4 0.537674 0.833513 0.499506
793 3 0.518704 0.830173 0.512208
794 1 0.498531 0.833743 0.499366
802 2 0.501188 0.831879 0.481098
803 2 0.492721 0.851027 0.502588
795 1 0.481136 0.817435 0.507633
804 2 0.477382 0.819145 0.525435
797 3 0.462802 0.813413 0.49234
796 1 0.477896 0.794842 0.496407
805 2 0.471673 0.780947 0.506555
790 4 0.550168 0.853145 0.502672
800 2 0.544084 0.866146 0.514112
791 4 0.570945 0.855834 0.491703
801 2 0.580368 0.871237 0.495001
792 1 0.601198 0.840777 0.441488
807 2 0.617654 0.842231 0.433083
809 2 0.591194 0.855575 0.436521
808 2 0.592692 0.825894 0.434473
816 1 0.617535 0.860751 0.474378
832 2 0.619444 0.862356 0.492732
833 2 0.609499 0.876294 0.468268
831 2 0.634624 0.86023 0.467204
815 4 0.619141 0.814622 0.499197
825 2 0.612205 0.826611 0.511323
814 4 0.628851 0.794807 0.507495
824 2 0.629441 0.791877 0.525604
818 1 0.621286 0.705745 0.476077
828 2 0.606205 0.701992 0.466394
821 3 0.626818 0.690377 0.494014
819 1 0.641119 0.689732 0.474486
830 2 0.658218 0.695914 0.476308
829 2 0.639612 0.675116 0.463561
806 2 0.489238 0.789979 0.482854
1258 1 0.622456 0.730128 0.816198
1267 2 0.653498 0.726486 0.834966
1268 2 0.657397 0.740432 0.80918
1261 3 0.644634 0.75924 0.836259
1254 4 0.636946 0.778399 0.826009
1253 4 0.636515 0.782612 0.802914
1264 2 0.643419 0.770615 0.790875
1252 4 0.626663 0.802479 0.794505
1263 2 0.626154 0.804695 0.776304
1251 4 0.617235 0.818612 0.809158
1226 1 0.60381 0.839515 0.800846
1227 4 0.579665 0.838717 0.811065
1228 4 0.566274 0.819229 0.807733
1239 2 0.572476 0.8054 0.797303
1229 4 0.545573 0.816518 0.818702
1240 2 0.536168 0.800895 0.816742
1230 4 0.537674 0.833513 0.832839
1234 3 0.518704 0.830173 0.845542
1235 1 0.498531 0.833743 0.832699
1243 2 0.501188 0.831879 0.814431
1244 2 0.492721 0.851027 0.835921
1236 1 0.481136 0.817435 0.840967
1245 2 0.477382 0.819145 0.858768
1238 3 0.462802 0.813413 0.825673
1237 1 0.477896 0.794842 0.82974
1246 2 0.471673 0.780947 0.839888
1231 4 0.550168 0.853145 0.836005
1241 2 0.544084 0.866146 0.847446
1232 4 0.570945 0.855834 0.825036
1242 2 0.580368 0.871237 0.828335
1233 1 0.601198 0.840777 0.774821
1248 2 0.617654 0.842231 0.766416
1250 2 0.591194 0.855575 0.769854
1249 2 0.592692 0.825894 0.767806
1257 1 0.617535 0.860751 0.807712
1273 2 0.619444 0.862356 0.826066
1274 2 0.609499 0.876294 0.801602
1272 2 0.634624 0.86023 0.800537
1256 4 0.619141 0.814622 0.832531
1266 2 0.612205 0.826611 0.844656
1255 4 0.628851 0.794807 0.840828
1265 2 0.629441 0.791877 0.858937
1259 1 0.621286 0.705745 0.80941
1269 2 0.606205 0.701992 0.799727
1262 3 0.626818 0.690377 0.827347
1260 1 0.641119 0.689732 0.80782
1271 2 0.658218 0.695914 0.809641
1270 2 0.639612 0.675116 0.796894
1247 2 0.489238 0.789979 0.816188
131 1 0.955789 0.0634614 0.149532
140 2 0.986832 0.0598197 0.168299
141 2 0.990731 0.0737654 0.142513
134 3 0.977967 0.0925733 0.169592
127 4 0.97028 0.111732 0.159343
126 4 0.969848 0.115946 0.136248
137 2 0.976753 0.103948 0.124209
125 4 0.959996 0.135812 0.127839
136 2 0.959488 0.138028 0.109637
124 4 0.950568 0.151945 0.142491
99 1 0.937143 0.172848 0.134179
100 4 0.912999 0.17205 0.144398
101 4 0.899607 0.152562 0.141067
112 2 0.905809 0.138733 0.130637
102 4 0.878907 0.149851 0.152035
113 2 0.869501 0.134228 0.150075
103 4 0.871007 0.166847 0.166172
107 3 0.852037 0.163506 0.178875
108 1 0.831865 0.167077 0.166033
116 2 0.834521 0.165213 0.147765
117 2 0.826055 0.184361 0.169254