ITEM: TIMESTEP
500
ITEM: NUMBER OF ATOMS
49
ITEM: BOX BOUNDS pp pp pp
-8.8624700000000001e+00 1.0863799999999999e+01
-8.8624700000000001e+00 1.0863799999999999e+01
-8.8624700000000001e+00 1.0863799999999999e+01
ITEM: ATOMS id type xs ys zs
33 1 0.89933 0.208046 0.49196
42 2 0.897824 0.158005 0.51536
43 2 0.901238 0.155301 0.50834
36 3 0.902768 0.26928 0.480587
29 4 0.905156 0.330309 0.467669
28 4 0.912401 0.352983 0.400822
39 2 0.957492 0.339151 0.372029
27 4 0.870596 0.405706 0.377766
38 2 0.839037 0.393034 0.334226
26 4 0.846746 0.453031 0.425629
1 1 0.807241 0.510504 0.408008
2 4 0.740426 0.511208 0.434717
3 4 0.701676 0.452027 0.428704
14 2 0.722224 0.408781 0.401128
4 4 0.635726 0.448714 0.454905
15 2 0.605642 0.402961 0.447514
5 4 0.609601 0.502076 0.493714
9 3 0.561223 0.49125 0.531796
10 1 0.506839 0.495044 0.501342
18 2 0.515751 0.492566 0.446871
19 2 0.493102 0.548183 0.494929
11 1 0.443569 0.454236 0.519255
20 2 0.437823 0.452098 0.574173
13 3 0.402229 0.443771 0.479148
12 1 0.433653 0.385709 0.4903
21 2 0.396983 0.344383 0.489296
6 4 0.651333 0.558425 0.5055
16 2 0.634883 0.597391 0.541059
7 4 0.713413 0.566058 0.471414
17 2 0.728938 0.617596 0.458924
8 1 0.805525 0.51556 0.330971
23 2 0.855144 0.520888 0.307261
25 2 0.773349 0.557973 0.316018
24 2 0.779737 0.47139 0.310135
32 1 0.844503 0.575314 0.427439
48 2 0.855777 0.601217 0.474912
49 2 0.838689 0.612613 0.387075
47 2 0.885795 0.583923 0.391689
31 4 0.851998 0.436342 0.494509
41 2 0.837666 0.471026 0.53506
30 4 0.886132 0.378077 0.516423
40 2 0.913106 0.379355 0.564632
34 1 0.885464 0.142663 0.453286
44 2 0.845723 0.124358 0.419534
37 3 0.874956 0.0839205 0.471225
35 1 0.920566 0.0782992 0.429164
46 2 0.973017 0.0722469 0.445459
45 2 0.927502 0.0416743 0.388373
22 2 0.476155 0.373403 0.457203
