ITEM: TIMESTEP
0
ITEM: NUMBER OF ATOMS
49
ITEM: BOX BOUNDS pp pp pp
-8.8624700000000001e+00 1.0863799999999999e+01
-8.8624700000000001e+00 1.0863799999999999e+01
-8.8624700000000001e+00 1.0863799999999999e+01
ITEM: ATOMS id type xs ys zs
33 1 0.867367 0.190384 0.448595
42 2 0.960495 0.179459 0.504897
43 2 0.972192 0.221296 0.427539
36 3 0.933902 0.27772 0.508777
29 4 0.910839 0.335197 0.478028
28 4 0.909545 0.347837 0.408743
39 2 0.930258 0.311844 0.372626
27 4 0.879989 0.407437 0.383516
38 2 0.878463 0.414084 0.328912
26 4 0.851705 0.455836 0.427473
1 1 0.811429 0.518545 0.402537
2 4 0.738996 0.516151 0.433195
3 4 0.698821 0.457687 0.4232
14 2 0.717428 0.4162 0.39191
4 4 0.63672 0.449553 0.456105
15 2 0.608504 0.402684 0.450226
5 4 0.613022 0.50054 0.498517
9 3 0.556111 0.490518 0.536625
10 1 0.495594 0.50123 0.498098
18 2 0.503563 0.495638 0.443294
19 2 0.478164 0.553082 0.507763
11 1 0.443409 0.452305 0.5229
20 2 0.432145 0.457435 0.576304
13 3 0.388405 0.440238 0.477019
12 1 0.433687 0.384525 0.48922
21 2 0.415019 0.342842 0.519664
6 4 0.650504 0.559435 0.508015
16 2 0.632252 0.598437 0.542337
7 4 0.712836 0.567502 0.475109
17 2 0.741103 0.61371 0.485004
8 1 0.803593 0.52233 0.324463
23 2 0.852961 0.526694 0.299249
25 2 0.773581 0.566726 0.309562
24 2 0.778077 0.477682 0.303418
32 1 0.852605 0.582254 0.423135
48 2 0.858332 0.587069 0.478197
49 2 0.828496 0.628882 0.404805
47 2 0.903872 0.580691 0.401612
31 4 0.857422 0.443866 0.497592
41 2 0.836616 0.479834 0.533968
30 4 0.886554 0.384422 0.522485
40 2 0.888323 0.375632 0.576812
34 1 0.863857 0.117234 0.428231
44 2 0.818615 0.105976 0.399181
37 3 0.880455 0.0711295 0.482042
35 1 0.923356 0.0691971 0.423459
46 2 0.974653 0.0877414 0.428923
45 2 0.918835 0.0253469 0.390683
22 2 0.467715 0.369937 0.448563
ITEM: TIMESTEP
100
ITEM: NUMBER OF ATOMS
49
ITEM: BOX BOUNDS pp pp pp
-8.8624700000000001e+00 1.0863799999999999e+01
-8.8624700000000001e+00 1.0863799999999999e+01
-8.8624700000000001e+00 1.0863799999999999e+01
ITEM: ATOMS id type xs ys zs
33 1 0.899995 0.198559 0.499573
42 2 0.89738 0.147066 0.520082
43 2 0.901565 0.144347 0.511246
36 3 0.903194 0.261413 0.485099
29 4 0.905459 0.325329 0.468601
28 4 0.917036 0.354625 0.4037
39 2 0.964088 0.343352 0.376975
27 4 0.874779 0.408296 0.378322
38 2 0.844017 0.396721 0.333899
26 4 0.849814 0.458786 0.422627
1 1 0.807844 0.515509 0.405445
2 4 0.740889 0.513949 0.434071
3 4 0.702716 0.453916 0.429703
14 2 0.722814 0.411576 0.400434
4 4 0.636581 0.449149 0.456626
15 2 0.606934 0.403433 0.44747
5 4 0.608828 0.501269 0.496435
9 3 0.558 0.491445 0.532578
10 1 0.502637 0.496729 0.503187
18 2 0.510145 0.500032 0.448557
19 2 0.48801 0.550014 0.501693
11 1 0.439507 0.453733 0.519152
20 2 0.431966 0.450909 0.573817
13 3 0.398024 0.441336 0.479416
12 1 0.433227 0.385222 0.489226
21 2 0.399923 0.341629 0.495836
6 4 0.649888 0.558555 0.50654
16 2 0.633255 0.597632 0.541885
7 4 0.711683 0.567423 0.471622
17 2 0.739795 0.613733 0.482501
8 1 0.805942 0.517833 0.327963
23 2 0.85593 0.522458 0.304851
25 2 0.774268 0.560013 0.3114
24 2 0.780796 0.472591 0.308666
32 1 0.846717 0.580419 0.423103
48 2 0.857778 0.60479 0.471446
49 2 0.837798 0.618939 0.384488
47 2 0.890735 0.585081 0.38993
31 4 0.849088 0.436523 0.489761
41 2 0.838347 0.469257 0.532982
30 4 0.891981 0.382297 0.510587
40 2 0.920674 0.388801 0.557295
34 1 0.882944 0.14059 0.449227
44 2 0.842054 0.122715 0.416508
37 3 0.875461 0.0825532 0.471004
35 1 0.921035 0.0759086 0.429215
46 2 0.973673 0.0721584 0.445631
45 2 0.927699 0.0406371 0.387179
22 2 0.476284 0.373508 0.456622
ITEM: TIMESTEP
200
ITEM: NUMBER OF ATOMS
49
ITEM: BOX BOUNDS pp pp pp
-8.8624700000000001e+00 1.0863799999999999e+01
-8.8624700000000001e+00 1.0863799999999999e+01
-8.8624700000000001e+00 1.0863799999999999e+01
ITEM: ATOMS id type xs ys zs
33 1 0.899555 0.205036 0.494475
42 2 0.897708 0.154537 0.516943
43 2 0.901341 0.151816 0.509395
36 3 0.90293 0.266638 0.482628
29 4 0.904276 0.328027 0.467924
28 4 0.913807 0.351787 0.401511
39 2 0.961751 0.340812 0.3763
27 4 0.874417 0.406826 0.377778
38 2 0.84616 0.395118 0.331757
26 4 0.849181 0.45515 0.424434
1 1 0.808166 0.51255 0.40695
2 4 0.740869 0.513151 0.434306
3 4 0.702426 0.45351 0.429421
14 2 0.722753 0.41082 0.400841
4 4 0.636545 0.448955 0.456364
15 2 0.606715 0.40331 0.44745
5 4 0.608625 0.501957 0.494592
9 3 0.559327 0.491092 0.531985
10 1 0.504213 0.495923 0.502553
18 2 0.512043 0.496963 0.447873
19 2 0.490063 0.549238 0.499121
11 1 0.441029 0.453913 0.519413
20 2 0.434325 0.451403 0.574204
13 3 0.39985 0.442345 0.479305
12 1 0.433313 0.385322 0.489906
21 2 0.398174 0.342676 0.490114
6 4 0.650096 0.558601 0.506157
16 2 0.633422 0.597414 0.54178
7 4 0.71221 0.567023 0.471856
17 2 0.736316 0.616117 0.478498
8 1 0.805881 0.51685 0.329649
23 2 0.855556 0.521825 0.305928
25 2 0.773845 0.559137 0.314285
24 2 0.780314 0.472202 0.309438
32 1 0.845947 0.5782 0.423547
48 2 0.856422 0.604194 0.471226
49 2 0.836147 0.615666 0.38409
47 2 0.889012 0.583972 0.389585
31 4 0.851133 0.434984 0.492552
41 2 0.838183 0.469706 0.533518
30 4 0.888426 0.37856 0.515131
40 2 0.920939 0.384498 0.559412
34 1 0.884595 0.141895 0.451906
44 2 0.844467 0.123786 0.418478
37 3 0.875129 0.0833377 0.471154
35 1 0.920723 0.0774107 0.42917
46 2 0.973253 0.0722013 0.445509
45 2 0.927578 0.0412755 0.387924
22 2 0.476474 0.373998 0.457312
ITEM: TIMESTEP
300
ITEM: NUMBER OF ATOMS
49
ITEM: BOX BOUNDS pp pp pp
-8.8624700000000001e+00 1.0863799999999999e+01
-8.8624700000000001e+00 1.0863799999999999e+01
-8.8624700000000001e+00 1.0863799999999999e+01
ITEM: ATOMS id type xs ys zs
33 1 0.89942 0.206757 0.493015
42 2 0.897777 0.156534 0.516041
43 2 0.901278 0.15382 0.508807
36 3 0.902812 0.26812 0.481602
29 4 0.904311 0.329191 0.467748
28 4 0.912981 0.352085 0.401087
39 2 0.959668 0.339484 0.374342
27 4 0.873115 0.40641 0.37763
38 2 0.843695 0.395163 0.33224
26 4 0.848047 0.45389 0.425056
1 1 0.807847 0.511436 0.407576
2 4 0.740788 0.512298 0.434683
3 4 0.702168 0.452924 0.429107
14 2 0.722642 0.410009 0.400969
4 4 0.636337 0.448782 0.455869
15 2 0.6064 0.403109 0.447467
5 4 0.608867 0.502107 0.493877
9 3 0.560191 0.491058 0.531761
10 1 0.505306 0.495472 0.502088
18 2 0.513452 0.495103 0.447444
19 2 0.491371 0.548737 0.497329
11 1 0.442091 0.454036 0.519436
20 2 0.435878 0.451652 0.574292
13 3 0.400954 0.442992 0.47922
12 1 0.433435 0.385469 0.490139
21 2 0.39756 0.343451 0.489125
6 4 0.65043 0.558568 0.505777
16 2 0.633857 0.597305 0.541533
7 4 0.71275 0.566506 0.472012
17 2 0.734482 0.617302 0.470841
8 1 0.805657 0.516261 0.330453
23 2 0.855251 0.521531 0.306667
25 2 0.773537 0.558727 0.315517
24 2 0.779942 0.471929 0.309877
32 1 0.845647 0.576698 0.424728
48 2 0.856591 0.602938 0.472088
49 2 0.836804 0.61395 0.384864
47 2 0.888053 0.583199 0.389823
31 4 0.851562 0.435482 0.493636
41 2 0.837938 0.470347 0.534268
30 4 0.887161 0.378149 0.516005
40 2 0.918075 0.382313 0.561617
34 1 0.885105 0.142325 0.452709
44 2 0.845199 0.124118 0.419091
37 3 0.875025 0.0836618 0.471198
35 1 0.92063 0.0779261 0.429164
46 2 0.973117 0.0722223 0.445474
45 2 0.927535 0.0415048 0.388183
22 2 0.476352 0.373898 0.457313
ITEM: TIMESTEP
400
ITEM: NUMBER OF ATOMS
49
ITEM: BOX BOUNDS pp pp pp
-8.8624700000000001e+00 1.0863799999999999e+01
-8.8624700000000001e+00 1.0863799999999999e+01
-8.8624700000000001e+00 1.0863799999999999e+01
ITEM: ATOMS id type xs ys zs
33 1 0.899362 0.207558 0.492355
42 2 0.897807 0.15745 0.515618
43 2 0.901252 0.154743 0.50852
36 3 0.902765 0.268839 0.48101
29 4 0.904692 0.329865 0.467691
28 4 0.91262 0.352578 0.400918
39 2 0.958347 0.339101 0.372972
27 4 0.871782 0.406096 0.377674
38 2 0.84166 0.392847 0.333184
26 4 0.84725 0.453336 0.425403
1 1 0.807504 0.510881 0.407861
2 4 0.740594 0.511669 0.434758
3 4 0.701909 0.452422 0.428872
14 2 0.722446 0.409331 0.401048
4 4 0.636039 0.448701 0.455367
15 2 0.606021 0.402987 0.447495
5 4 0.609231 0.502108 0.493679
9 3 0.560788 0.491125 0.531732
10 1 0.506153 0.49521 0.501688
18 2 0.514672 0.493719 0.447119
19 2 0.492342 0.548414 0.495996
11 1 0.442907 0.454143 0.519359
20 2 0.436981 0.451879 0.574252
13 3 0.401685 0.443437 0.479175
12 1 0.433552 0.3856 0.49024
21 2 0.397218 0.343981 0.489127
6 4 0.650861 0.558532 0.50555
16 2 0.634357 0.597322 0.541277
7 4 0.71326 0.566155 0.4719
17 2 0.730455 0.618036 0.464052
8 1 0.805465 0.515986 0.3308
23 2 0.855123 0.521191 0.307075
25 2 0.773405 0.558308 0.315942
24 2 0.779749 0.471585 0.310065
32 1 0.84526 0.575807 0.426078
48 2 0.856504 0.601922 0.473474
49 2 0.837868 0.613118 0.385956
47 2 0.886939 0.58326 0.390679
31 4 0.851787 0.435979 0.49418
41 2 0.837773 0.470763 0.534753
30 4 0.886514 0.3781 0.516292
40 2 0.915359 0.380676 0.563352
34 1 0.885331 0.142534 0.453071
44 2 0.845528 0.124269 0.419369
37 3 0.874981 0.0838215 0.471215
35 1 0.92059 0.07816 0.429163
46 2 0.973055 0.0722359 0.445463
45 2 0.927514 0.0416108 0.388302
22 2 0.476245 0.373647 0.457259
ITEM: TIMESTEP
500
ITEM: NUMBER OF ATOMS
49
ITEM: BOX BOUNDS pp pp pp
-8.8624700000000001e+00 1.0863799999999999e+01
-8.8624700000000001e+00 1.0863799999999999e+01
-8.8624700000000001e+00 1.0863799999999999e+01
ITEM: ATOMS id type xs ys zs
33 1 0.89933 0.208046 0.49196
42 2 0.897824 0.158005 0.51536
43 2 0.901238 0.155301 0.50834
36 3 0.902768 0.26928 0.480587
29 4 0.905156 0.330309 0.467669
28 4 0.912401 0.352983 0.400822
39 2 0.957492 0.339151 0.372029
27 4 0.870596 0.405706 0.377766
38 2 0.839037 0.393034 0.334226
26 4 0.846746 0.453031 0.425629
1 1 0.807241 0.510504 0.408008
2 4 0.740426 0.511208 0.434717
3 4 0.701676 0.452027 0.428704
14 2 0.722224 0.408781 0.401128
4 4 0.635726 0.448714 0.454905
15 2 0.605642 0.402961 0.447514
5 4 0.609601 0.502076 0.493714
9 3 0.561223 0.49125 0.531796
10 1 0.506839 0.495044 0.501342
18 2 0.515751 0.492566 0.446871
19 2 0.493102 0.548183 0.494929
11 1 0.443569 0.454236 0.519255
20 2 0.437823 0.452098 0.574173
13 3 0.402229 0.443771 0.479148
12 1 0.433653 0.385709 0.4903
21 2 0.396983 0.344383 0.489296
6 4 0.651333 0.558425 0.5055
16 2 0.634883 0.597391 0.541059
7 4 0.713413 0.566058 0.471414
17 2 0.728938 0.617596 0.458924
8 1 0.805525 0.51556 0.330971
23 2 0.855144 0.520888 0.307261
25 2 0.773349 0.557973 0.316018
24 2 0.779737 0.47139 0.310135
32 1 0.844503 0.575314 0.427439
48 2 0.855777 0.601217 0.474912
49 2 0.838689 0.612613 0.387075
47 2 0.885795 0.583923 0.391689
31 4 0.851998 0.436342 0.494509
41 2 0.837666 0.471026 0.53506
30 4 0.886132 0.378077 0.516423
40 2 0.913106 0.379355 0.564632
34 1 0.885464 0.142663 0.453286
44 2 0.845723 0.124358 0.419534
37 3 0.874956 0.0839205 0.471225
35 1 0.920566 0.0782992 0.429164
46 2 0.973017 0.0722469 0.445459
45 2 0.927502 0.0416743 0.388373
22 2 0.476155 0.373403 0.457203
