ITEM: TIMESTEP
0
ITEM: NUMBER OF ATOMS
108
ITEM: BOX BOUNDS pp pp pp
-2.4881763080186411e-02 1.2124408815400924e+01
-2.4881763080186411e-02 1.2124408815400924e+01
-2.4881763080186411e-02 1.2124408815400924e+01
ITEM: ATOMS id type xs ys zs
1 1 8.8526e-18 8.8526e-18 8.8526e-18
2 1 0.166667 0.166667 8.8526e-18
3 1 0.166667 8.8526e-18 0.166667
4 1 8.8526e-18 0.166667 0.166667
37 1 8.8526e-18 8.8526e-18 0.333333
38 1 0.166667 0.166667 0.333333
13 1 8.8526e-18 0.333333 8.8526e-18
15 1 0.166667 0.333333 0.166667
49 1 8.8526e-18 0.333333 0.333333
5 1 0.333333 8.8526e-18 8.8526e-18
8 1 0.333333 0.166667 0.166667
41 1 0.333333 8.8526e-18 0.333333
17 1 0.333333 0.333333 8.8526e-18
53 1 0.333333 0.333333 0.333333
6 1 0.5 0.166667 8.8526e-18
7 1 0.5 8.8526e-18 0.166667
42 1 0.5 0.166667 0.333333
19 1 0.5 0.333333 0.166667
9 1 0.666667 8.8526e-18 8.8526e-18
10 1 0.833333 0.166667 8.8526e-18
11 1 0.833333 8.8526e-18 0.166667
12 1 0.666667 0.166667 0.166667
45 1 0.666667 8.8526e-18 0.333333
46 1 0.833333 0.166667 0.333333
21 1 0.666667 0.333333 8.8526e-18
23 1 0.833333 0.333333 0.166667
57 1 0.666667 0.333333 0.333333
14 1 0.166667 0.5 8.8526e-18
16 1 8.8526e-18 0.5 0.166667
50 1 0.166667 0.5 0.333333
25 1 8.8526e-18 0.666667 8.8526e-18
26 1 0.166667 0.833333 8.8526e-18
27 1 0.166667 0.666667 0.166667
28 1 8.8526e-18 0.833333 0.166667
61 1 8.8526e-18 0.666667 0.333333
62 1 0.166667 0.833333 0.333333
20 1 0.333333 0.5 0.166667
29 1 0.333333 0.666667 8.8526e-18
32 1 0.333333 0.833333 0.166667
65 1 0.333333 0.666667 0.333333
18 1 0.5 0.5 8.8526e-18
54 1 0.5 0.5 0.333333
30 1 0.5 0.833333 8.8526e-18
31 1 0.5 0.666667 0.166667
66 1 0.5 0.833333 0.333333
22 1 0.833333 0.5 8.8526e-18
24 1 0.666667 0.5 0.166667
58 1 0.833333 0.5 0.333333
33 1 0.666667 0.666667 8.8526e-18
34 1 0.833333 0.833333 8.8526e-18
35 1 0.833333 0.666667 0.166667
36 1 0.666667 0.833333 0.166667
69 1 0.666667 0.666667 0.333333
70 1 0.833333 0.833333 0.333333
39 1 0.166667 8.8526e-18 0.5
40 1 8.8526e-18 0.166667 0.5
73 1 8.8526e-18 8.8526e-18 0.666667
74 1 0.166667 0.166667 0.666667
75 1 0.166667 8.8526e-18 0.833333
76 1 8.8526e-18 0.166667 0.833333
51 1 0.166667 0.333333 0.5
85 1 8.8526e-18 0.333333 0.666667
87 1 0.166667 0.333333 0.833333
44 1 0.333333 0.166667 0.5
77 1 0.333333 8.8526e-18 0.666667
80 1 0.333333 0.166667 0.833333
89 1 0.333333 0.333333 0.666667
43 1 0.5 8.8526e-18 0.5
78 1 0.5 0.166667 0.666667
79 1 0.5 8.8526e-18 0.833333
55 1 0.5 0.333333 0.5
91 1 0.5 0.333333 0.833333
47 1 0.833333 8.8526e-18 0.5
48 1 0.666667 0.166667 0.5
81 1 0.666667 8.8526e-18 0.666667
82 1 0.833333 0.166667 0.666667
83 1 0.833333 8.8526e-18 0.833333
84 1 0.666667 0.166667 0.833333
59 1 0.833333 0.333333 0.5
93 1 0.666667 0.333333 0.666667
95 1 0.833333 0.333333 0.833333
52 1 8.8526e-18 0.5 0.5
86 1 0.166667 0.5 0.666667
88 1 8.8526e-18 0.5 0.833333
63 1 0.166667 0.666667 0.5
64 1 8.8526e-18 0.833333 0.5
97 1 8.8526e-18 0.666667 0.666667
98 1 0.166667 0.833333 0.666667
99 1 0.166667 0.666667 0.833333
100 1 8.8526e-18 0.833333 0.833333
56 1 0.333333 0.5 0.5
92 1 0.333333 0.5 0.833333
68 1 0.333333 0.833333 0.5
101 1 0.333333 0.666667 0.666667
104 1 0.333333 0.833333 0.833333
90 1 0.5 0.5 0.666667
67 1 0.5 0.666667 0.5
102 1 0.5 0.833333 0.666667
103 1 0.5 0.666667 0.833333
60 1 0.666667 0.5 0.5
94 1 0.833333 0.5 0.666667
96 1 0.666667 0.5 0.833333
71 1 0.833333 0.666667 0.5
72 1 0.666667 0.833333 0.5
105 1 0.666667 0.666667 0.666667
106 1 0.833333 0.833333 0.666667
107 1 0.833333 0.666667 0.833333
108 1 0.666667 0.833333 0.833333
ITEM: TIMESTEP
2000
ITEM: NUMBER OF ATOMS
108
ITEM: BOX BOUNDS pp pp pp
-3.5763528617227536e-02 1.2135290580938001e+01
-3.5763528617227536e-02 1.2135290580938001e+01
-3.5763528617227536e-02 1.2135290580938001e+01
ITEM: ATOMS id type xs ys zs
1 1 0.00168232 -0.00425609 0.00194235
2 1 0.156288 0.176432 0.000860555
3 1 0.17012 -0.00160712 0.157556
4 1 0.0129413 0.161104 0.168692
37 1 0.00356996 0.0109904 0.336644
38 1 0.157153 0.157832 0.333489
13 1 -0.000347127 0.325893 -0.0057747
15 1 0.16523 0.338583 0.165417
49 1 0.00272924 0.333745 0.342358
5 1 0.325274 -0.00210517 0.000180079
8 1 0.335494 0.156556 0.153257
41 1 0.327496 0.00849581 0.347981
17 1 0.334267 0.331588 -0.00364292
53 1 0.333513 0.327061 0.312534
6 1 0.494456 0.156268 0.00454243
7 1 0.504739 -0.0092263 0.19419
42 1 0.499164 0.175332 0.342803
19 1 0.507116 0.325865 0.174245
9 1 0.653614 0.00707441 -0.00283632
10 1 0.8515 0.16042 6.97711e-05
11 1 0.823123 -0.00543327 0.172817
12 1 0.671111 0.151639 0.171672
45 1 0.676888 -0.0212051 0.347529
46 1 0.836598 0.174883 0.322069
21 1 0.670362 0.319506 0.00547749
23 1 0.834092 0.337429 0.168093
57 1 0.67448 0.339395 0.331427
14 1 0.165791 0.502769 -0.00325172
16 1 0.00445297 0.504889 0.166905
50 1 0.168755 0.494382 0.338821
25 1 -0.0111657 0.678833 -0.00309127
26 1 0.166022 0.832937 -0.00349702
27 1 0.159636 0.674248 0.152423
28 1 -0.000332001 0.836014 0.167946
61 1 0.0128467 0.666521 0.342861
62 1 0.163598 0.836135 0.340066
20 1 0.335625 0.495 0.160365
29 1 0.332714 0.668875 0.00219181
32 1 0.329098 0.835849 0.172144
65 1 0.319025 0.668981 0.33819
18 1 0.506649 0.5092 -0.00825537
54 1 0.489518 0.492177 0.331717
30 1 0.49453 0.837695 0.00551538
31 1 0.481248 0.658801 0.16859
66 1 0.500926 0.830846 0.327913
22 1 0.839 0.492234 0.00486607
24 1 0.659951 0.492969 0.15719
58 1 0.8388 0.510596 0.335145
33 1 0.663638 0.671555 -0.0110088
34 1 0.82426 0.848952 -0.00463067
35 1 0.828201 0.664195 0.154798
36 1 0.666795 0.827496 0.159596
69 1 0.681078 0.682125 0.330662
70 1 0.858651 0.846202 0.340301
39 1 0.173917 -0.0116885 0.502507
40 1 0.0028792 0.1571 0.500648
73 1 -0.00307285 -0.00191172 0.672586
74 1 0.17011 0.171724 0.67941
75 1 0.167277 -0.00608641 0.830668
76 1 -0.00377077 0.163132 0.812657
51 1 0.161236 0.334242 0.493426
85 1 0.00638455 0.34325 0.657824
87 1 0.167375 0.339253 0.837618
44 1 0.313517 0.162524 0.50222
77 1 0.327026 0.018838 0.666838
80 1 0.340095 0.167992 0.836645
89 1 0.335316 0.319639 0.658338
43 1 0.507395 -0.00328013 0.511378
78 1 0.498792 0.172731 0.662426
79 1 0.488064 0.000556098 0.831676
55 1 0.507018 0.322094 0.494686
91 1 0.505127 0.344207 0.844202
47 1 0.83977 0.00702279 0.508984
48 1 0.663039 0.158612 0.491291
81 1 0.666721 0.00221464 0.675819
82 1 0.833967 0.17296 0.662836
83 1 0.825773 0.008068 0.833
84 1 0.665463 0.168086 0.840038
59 1 0.83829 0.330968 0.495454
93 1 0.667935 0.322539 0.645462
95 1 0.828016 0.329268 0.845571
52 1 0.00190464 0.509625 0.506076
86 1 0.172344 0.484445 0.655004
88 1 -0.0131058 0.507257 0.835428
63 1 0.175338 0.65462 0.508389
64 1 0.0137795 0.832235 0.506055
97 1 0.0073347 0.66409 0.666365
98 1 0.161259 0.829002 0.673202
99 1 0.155619 0.662307 0.84899
100 1 0.00171631 0.837568 0.837499
56 1 0.345341 0.493857 0.495467
92 1 0.325822 0.508256 0.821254
68 1 0.338847 0.835631 0.528105
101 1 0.338927 0.663207 0.669913
104 1 0.329218 0.843687 0.828493
90 1 0.49878 0.495986 0.662686
67 1 0.484785 0.670202 0.489427
102 1 0.502821 0.830963 0.668638
103 1 0.493306 0.664604 0.83353
60 1 0.666237 0.500253 0.48702
94 1 0.836421 0.504194 0.656174
96 1 0.67571 0.501336 0.824757
71 1 0.836416 0.670693 0.492116
72 1 0.660135 0.820195 0.504662
105 1 0.662706 0.676349 0.673977
106 1 0.839189 0.831971 0.662821
107 1 0.837846 0.67289 0.833051
108 1 0.655682 0.84779 0.828627
ITEM: TIMESTEP
4000
ITEM: NUMBER OF ATOMS
108
ITEM: BOX BOUNDS pp pp pp
-3.4690544561049919e-02 1.2134217596881808e+01
-3.4690544561049919e-02 1.2134217596881808e+01
-3.4690544561049919e-02 1.2134217596881808e+01
ITEM: ATOMS id type xs ys zs
1 1 0.00211096 -0.0035977 0.00669187
2 1 0.164808 0.169779 0.00606682
3 1 0.168319 -0.0123029 0.168127
4 1 0.0083302 0.154309 0.163062
37 1 0.00148095 -0.00442715 0.33211
38 1 0.167985 0.158687 0.342475
13 1 0.00914148 0.330706 -0.000966448
15 1 0.159557 0.327836 0.170689
49 1 0.00225291 0.339485 0.329861
5 1 0.340122 -0.0053232 -0.00147971
8 1 0.33548 0.169881 0.167691
41 1 0.333449 0.00321298 0.313973
17 1 0.331385 0.325998 -0.0166025
53 1 0.328354 0.335861 0.334333
6 1 0.501716 0.151139 -0.00371575
7 1 0.509164 0.00642567 0.162071
42 1 0.49852 0.154824 0.324179
19 1 0.502103 0.328011 0.1593
9 1 0.669182 0.00395451 -0.0023861
10 1 0.838345 0.156361 0.0122039
11 1 0.830759 0.00328917 0.166985
12 1 0.669568 0.178939 0.161946
45 1 0.660614 0.00961767 0.333955
46 1 0.851237 0.16958 0.331847
21 1 0.668241 0.350321 -0.0136507
23 1 0.830492 0.322667 0.153741
57 1 0.665226 0.337517 0.325226
14 1 0.16532 0.504339 -0.00166843
16 1 0.0073354 0.49751 0.170292
50 1 0.172395 0.509215 0.339804
25 1 0.00770325 0.673582 0.00137757
26 1 0.177124 0.840264 -0.00582678
27 1 0.171271 0.669343 0.167602
28 1 0.000523298 0.820125 0.178717
61 1 -0.00498521 0.658699 0.336446
62 1 0.17309 0.827976 0.344679
20 1 0.328988 0.496959 0.176519
29 1 0.341693 0.656906 -0.00281656
32 1 0.344098 0.838048 0.154623
65 1 0.331045 0.677534 0.340999
18 1 0.496713 0.492191 0.00704931
54 1 0.493083 0.507026 0.344074
30 1 0.499993 0.815922 -0.00161162
31 1 0.488563 0.670108 0.177987
66 1 0.496211 0.841617 0.331833
22 1 0.840106 0.509774 0.00136633
24 1 0.667002 0.499849 0.178166
58 1 0.820617 0.496375 0.354091
33 1 0.666026 0.667952 0.00666097
34 1 0.83443 0.849259 0.0129039
35 1 0.832477 0.673385 0.175669
36 1 0.666495 0.834622 0.171661
69 1 0.66683 0.676745 0.344893
70 1 0.822282 0.836643 0.334522
39 1 0.161451 -0.00636957 0.506601
40 1 0.00793019 0.174035 0.499129
73 1 -0.000552162 0.00487741 0.651242
74 1 0.165265 0.178046 0.670316
75 1 0.160169 0.00450934 0.831966
76 1 -0.00684209 0.171106 0.838469
51 1 0.152861 0.340612 0.505153
85 1 -0.0152633 0.333405 0.665617
87 1 0.152344 0.339282 0.826889
44 1 0.334053 0.167915 0.495387
77 1 0.337315 0.00813054 0.659681
80 1 0.327065 0.158598 0.827725
89 1 0.330127 0.336343 0.670484
43 1 0.498791 0.00162913 0.497636
78 1 0.506308 0.163866 0.664273
79 1 0.50621 -0.00389161 0.817307
55 1 0.510486 0.320717 0.494795
91 1 0.496735 0.323603 0.82202
47 1 0.831391 0.00218506 0.499368
48 1 0.673461 0.169179 0.491259
81 1 0.664569 -0.00437913 0.670262
82 1 0.840292 0.155169 0.662914
83 1 0.846694 -0.00291578 0.819557
84 1 0.667913 0.170517 0.825563
59 1 0.820399 0.333214 0.505099
93 1 0.665882 0.327551 0.673405
95 1 0.835439 0.324438 0.838518
52 1 0.00151544 0.511133 0.50448
86 1 0.153939 0.507465 0.668565
88 1 -0.00534955 0.509206 0.833162
63 1 0.174347 0.658885 0.506404
64 1 0.00156123 0.823043 0.491458
97 1 -0.00477846 0.671195 0.668213
98 1 0.174468 0.837883 0.66379
99 1 0.170745 0.673423 0.822742
100 1 -0.00334835 0.840306 0.821375
56 1 0.335139 0.49503 0.498698
92 1 0.328826 0.489434 0.828934
68 1 0.326203 0.840908 0.483906
101 1 0.337155 0.64552 0.670675
104 1 0.337749 0.822234 0.82734
90 1 0.501528 0.496061 0.66829
67 1 0.480757 0.670523 0.501468
102 1 0.496401 0.828112 0.661047
103 1 0.496076 0.661665 0.836914
60 1 0.658229 0.502451 0.505167
94 1 0.835259 0.50548 0.660286
96 1 0.679143 0.504722 0.838924
71 1 0.831984 0.668203 0.512174
72 1 0.667263 0.832238 0.495098
105 1 0.669652 0.671867 0.681932
106 1 0.832388 0.844673 0.664165
107 1 0.835714 0.667569 0.842561
108 1 0.662571 0.824681 0.84385
ITEM: TIMESTEP
6000
ITEM: NUMBER OF ATOMS
108
ITEM: BOX BOUNDS pp pp pp
-3.6099040113950487e-02 1.2135626092434721e+01
-3.6099040113950487e-02 1.2135626092434721e+01
-3.6099040113950487e-02 1.2135626092434721e+01
ITEM: ATOMS id type xs ys zs
1 1 0.00132642 -0.00196038 -0.0148289
2 1 0.174338 0.168908 -0.000556767
3 1 0.179781 -0.00570858 0.171755
4 1 -0.00560143 0.172799 0.161304
37 1 -0.00410137 -0.0057397 0.318526
38 1 0.168987 0.173787 0.332254
13 1 0.00586109 0.343851 0.0108157
15 1 0.156728 0.342549 0.161795
49 1 -0.00372279 0.338711 0.340509
5 1 0.338139 0.0154326 0.00274784
8 1 0.329568 0.162867 0.166791
41 1 0.344445 0.0107615 0.352597
17 1 0.326858 0.331039 0.00271807
53 1 0.339576 0.337944 0.335075
6 1 0.501998 0.180554 -0.00922239
7 1 0.49341 0.00295638 0.17178
42 1 0.501229 0.15809 0.340138
19 1 0.502265 0.324259 0.167368
9 1 0.670054 -0.02112 0.00367088
10 1 0.830952 0.16722 0.00751063
11 1 0.826277 -0.00721506 0.15397
12 1 0.657122 0.173386 0.158869
45 1 0.673818 0.00875047 0.313783
46 1 0.834807 0.164549 0.318769
21 1 0.661504 0.340482 0.00111299
23 1 0.814424 0.333605 0.167436
57 1 0.655495 0.315895 0.339719
14 1 0.160237 0.495432 -0.0039265
16 1 -0.00038555 0.5132 0.171439
50 1 0.173219 0.498749 0.330333
25 1 0.0107304 0.670974 0.0105834
26 1 0.174349 0.846757 0.00317488
27 1 0.175078 0.675794 0.173439
28 1 0.00920828 0.839229 0.163731
61 1 -0.00405733 0.678828 0.321184
62 1 0.16643 0.835143 0.331542
20 1 0.326789 0.499967 0.14926
29 1 0.33445 0.672052 -0.00772958
32 1 0.340363 0.846403 0.172418
65 1 0.330944 0.660585 0.329254
18 1 0.506949 0.496889 0.00576661
54 1 0.509979 0.491255 0.330341
30 1 0.495429 0.836465 0.0159121
31 1 0.488672 0.66301 0.162102
66 1 0.504357 0.822219 0.350959
22 1 0.829843 0.500603 -0.00166232
24 1 0.65801 0.497998 0.172681
58 1 0.829409 0.488002 0.334631
33 1 0.67333 0.667328 -0.000860228
34 1 0.841182 0.823627 0.000784146
35 1 0.832436 0.651476 0.171072
36 1 0.66653 0.808986 0.16859
69 1 0.666779 0.659173 0.332995
70 1 0.826317 0.843222 0.332752
39 1 0.165737 0.00325355 0.508672
40 1 0.00879924 0.168359 0.498977
73 1 -0.017323 -0.00824114 0.663796
74 1 0.168913 0.16304 0.664221
75 1 0.15918 -0.0122627 0.831108
76 1 -4.80116e-05 0.165857 0.840714
51 1 0.172502 0.338718 0.492533
85 1 0.0126931 0.334874 0.656474
87 1 0.159597 0.338531 0.838721
44 1 0.350775 0.169877 0.503776
77 1 0.335503 -0.00357807 0.669523
80 1 0.328173 0.15516 0.8306
89 1 0.336787 0.333368 0.674089
43 1 0.508175 -0.00508129 0.503816
78 1 0.498946 0.176319 0.683298
79 1 0.490794 0.00666461 0.827464
55 1 0.508151 0.336155 0.504711
91 1 0.494017 0.351612 0.835584
47 1 0.832669 -0.00186977 0.498695
48 1 0.660662 0.171615 0.501424
81 1 0.672426 -0.00434528 0.660092
82 1 0.841237 0.175309 0.659549
83 1 0.826999 -0.0090209 0.828624
84 1 0.665402 0.157997 0.834363
59 1 0.819937 0.330735 0.500807
93 1 0.664499 0.324909 0.679744
95 1 0.833232 0.339759 0.843283
52 1 -0.00723438 0.5006 0.493632
86 1 0.167369 0.494083 0.671462
88 1 -0.00215554 0.507226 0.833567
63 1 0.148129 0.666219 0.502147
64 1 0.00532264 0.834611 0.491303
97 1 -0.0132797 0.672542 0.663594
98 1 0.173339 0.835574 0.671795
99 1 0.16169 0.654328 0.836933
100 1 -0.00939632 0.835858 0.829076
56 1 0.337844 0.50797 0.509236
92 1 0.344887 0.501685 0.830861
68 1 0.337223 0.821488 0.494843
101 1 0.335334 0.681292 0.664207
104 1 0.334437 0.832582 0.837515
90 1 0.513096 0.505522 0.663094
67 1 0.502869 0.661983 0.489516
102 1 0.506776 0.825562 0.679393
103 1 0.502135 0.66348 0.841702
60 1 0.670753 0.503286 0.502343
94 1 0.832405 0.496734 0.668787
96 1 0.664996 0.502738 0.826738
71 1 0.830647 0.668019 0.479359
72 1 0.681838 0.834037 0.495697
105 1 0.669381 0.668167 0.646797
106 1 0.825005 0.833105 0.676989
107 1 0.82943 0.648762 0.832217
108 1 0.656616 0.834809 0.835366
ITEM: TIMESTEP
8000
ITEM: NUMBER OF ATOMS
108
ITEM: BOX BOUNDS pp pp pp
-2.8729123297080328e-02 1.2128256175617878e+01
-2.8729123297080328e-02 1.2128256175617878e+01
-2.8729123297080328e-02 1.2128256175617878e+01
ITEM: ATOMS id type xs ys zs
1 1 -0.00762211 0.00427479 0.00777655
2 1 0.166257 0.145803 0.00306207
3 1 0.181075 0.00401532 0.172372
4 1 0.000284867 0.170931 0.168505
37 1 -0.0013125 0.00662166 0.334178
38 1 0.148347 0.165214 0.338303
13 1 0.0211766 0.333775 -0.00987417
15 1 0.171717 0.319201 0.155748
49 1 0.0067609 0.344749 0.319502
5 1 0.34438 -4.70408e-05 -0.00672094
8 1 0.343159 0.165548 0.162601
41 1 0.334676 0.0140884 0.338482
17 1 0.326946 0.343948 -0.00352265
53 1 0.337408 0.335624 0.33524
6 1 0.515304 0.157677 0.0133621
7 1 0.486228 -0.00153944 0.177015
42 1 0.50917 0.16467 0.344856
19 1 0.49101 0.325037 0.165616
9 1 0.671291 -0.019806 0.000454767
10 1 0.84491 0.171526 0.00022619
11 1 0.819547 0.0138915 0.15697
12 1 0.660168 0.172341 0.17433
45 1 0.672577 0.0113577 0.330539
46 1 0.835322 0.170543 0.333814
21 1 0.667822 0.326769 -0.00255069
23 1 0.821398 0.328244 0.154526
57 1 0.668546 0.343437 0.334075
14 1 0.169206 0.487145 -0.00952753
16 1 -0.000473933 0.503465 0.16305
50 1 0.168497 0.503858 0.331002
25 1 -0.00558713 0.665884 0.00903115
26 1 0.16545 0.831469 0.0130901
27 1 0.163215 0.661304 0.16165
28 1 -0.01071 0.846781 0.171826
61 1 -0.000977936 0.676188 0.320255
62 1 0.171387 0.840333 0.328385
20 1 0.333527 0.500361 0.171497
29 1 0.328292 0.653595 0.00907309
32 1 0.327493 0.827383 0.171696
65 1 0.336478 0.664236 0.325089
18 1 0.503704 0.51667 0.00802531
54 1 0.503447 0.508482 0.338775
30 1 0.509129 0.814559 -0.017232
31 1 0.510622 0.677792 0.162023
66 1 0.512211 0.830837 0.326092
22 1 0.831495 0.499912 0.00724111
24 1 0.669179 0.497652 0.159348
58 1 0.832058 0.501494 0.325449
33 1 0.670312 0.669255 -0.00104614
34 1 0.834379 0.833082 -0.00824701
35 1 0.823346 0.682242 0.168202
36 1 0.659864 0.846207 0.16096
69 1 0.666436 0.651835 0.329885
70 1 0.825707 0.846403 0.336081
39 1 0.162826 -0.0117453 0.511652
40 1 0.00159298 0.153173 0.504162
73 1 0.00598534 -0.00179137 0.679996
74 1 0.173973 0.166329 0.669074
75 1 0.184783 0.0105152 0.831656
76 1 0.00271804 0.169201 0.828319
51 1 0.153828 0.333072 0.494857
85 1 -0.004465 0.330267 0.66903
87 1 0.162002 0.330156 0.820228
44 1 0.328423 0.169648 0.507467
77 1 0.340127 0.00187724 0.671329
80 1 0.34535 0.175918 0.839464
89 1 0.328631 0.336455 0.670404
43 1 0.515372 -0.00951928 0.498056
78 1 0.499001 0.159502 0.67495
79 1 0.500327 -0.000883564 0.845039
55 1 0.493731 0.342845 0.50651
91 1 0.50839 0.338621 0.846664
47 1 0.822476 0.00228797 0.5013
48 1 0.663664 0.182719 0.500996
81 1 0.666182 -9.26385e-05 0.665717
82 1 0.822268 0.173642 0.67618
83 1 0.825409 0.00827499 0.839127
84 1 0.667952 0.161051 0.832876
59 1 0.834452 0.328246 0.507208
93 1 0.662388 0.342813 0.661549
95 1 0.830982 0.33808 0.838055
52 1 -0.000479004 0.500453 0.502851
86 1 0.162897 0.503442 0.654561
88 1 -0.00333604 0.500509 0.837892
63 1 0.167762 0.672142 0.483788
64 1 0.00390914 0.840098 0.499045
97 1 0.00205566 0.670983 0.665241
98 1 0.173578 0.825505 0.671554
99 1 0.147005 0.668977 0.845736
100 1 -0.00455483 0.841724 0.83506
56 1 0.314683 0.495839 0.498568
92 1 0.318544 0.509264 0.824037
68 1 0.334696 0.824206 0.49181
101 1 0.339887 0.66584 0.654699
104 1 0.334007 0.825199 0.83539
90 1 0.49267 0.500041 0.664418
67 1 0.491911 0.661442 0.498959
102 1 0.507246 0.833616 0.682116
103 1 0.488605 0.648056 0.835944
60 1 0.670722 0.491799 0.495828
94 1 0.842179 0.492228 0.673257
96 1 0.668867 0.4958 0.825921
71 1 0.831452 0.664002 0.47868
72 1 0.665187 0.816149 0.494639
105 1 0.674634 0.658123 0.664048
106 1 0.831889 0.818691 0.659344
107 1 0.840313 0.654861 0.837926
108 1 0.67107 0.834036 0.836266
ITEM: TIMESTEP
10000
ITEM: NUMBER OF ATOMS
108
ITEM: BOX BOUNDS pp pp pp
-2.0608096227055839e-02 1.2120135148547854e+01
-2.0608096227055839e-02 1.2120135148547854e+01
-2.0608096227055839e-02 1.2120135148547854e+01
ITEM: ATOMS id type xs ys zs
1 1 0.0182885 -0.000287463 -0.00211238
2 1 0.163043 0.163487 -0.0109578
3 1 0.178434 -0.00186725 0.156177
4 1 0.00892424 0.159281 0.167966
37 1 -0.00527478 -0.0142328 0.334486
38 1 0.172884 0.162332 0.336477
13 1 0.000430261 0.32693 -0.00468213
15 1 0.170552 0.324851 0.171501
49 1 0.0054154 0.327587 0.328883
5 1 0.33878 -0.00315407 -0.0129637
8 1 0.337294 0.171076 0.151943
41 1 0.330694 0.0108362 0.333608
17 1 0.330665 0.33807 -0.0101036
53 1 0.336462 0.31635 0.340867
6 1 0.505761 0.158717 -0.0028549
7 1 0.501171 0.00192198 0.168148
42 1 0.511381 0.163354 0.334239
19 1 0.501289 0.332232 0.165362
9 1 0.675935 0.00769728 0.00799413
10 1 0.839866 0.167094 0.003583
11 1 0.832859 0.00413099 0.170215
12 1 0.665439 0.179666 0.17264
45 1 0.661691 -0.00677155 0.350262
46 1 0.830212 0.159983 0.342068
21 1 0.662104 0.343626 0.0107947
23 1 0.84762 0.318692 0.165433
57 1 0.667452 0.350383 0.343007
14 1 0.162983 0.49837 0.000555717
16 1 -0.000259984 0.491799 0.155238
50 1 0.163322 0.498445 0.328981
25 1 0.00856139 0.674626 0.000131367
26 1 0.174658 0.834157 -0.00502698
27 1 0.161126 0.677044 0.160183
28 1 0.0154762 0.837503 0.160601
61 1 0.00168471 0.660479 0.318
62 1 0.179801 0.827368 0.325399
20 1 0.342373 0.484952 0.167019
29 1 0.328296 0.674422 0.00919858
32 1 0.335082 0.833014 0.166436
65 1 0.336876 0.655052 0.330155
18 1 0.496371 0.510347 0.00364647
54 1 0.503184 0.499475 0.334048
30 1 0.512446 0.825334 -0.0011729
31 1 0.500603 0.669863 0.176043
66 1 0.495974 0.842365 0.33852
22 1 0.83806 0.51034 0.0045181
24 1 0.673982 0.49687 0.159991
58 1 0.84371 0.488977 0.321786
33 1 0.664738 0.668057 -0.00249956
34 1 0.8319 0.843959 0.0013468
35 1 0.826517 0.671132 0.166226
36 1 0.660839 0.849286 0.177859
69 1 0.674032 0.666538 0.341236
70 1 0.822924 0.830727 0.344846
39 1 0.160208 -0.0170299 0.495401
40 1 0.00312655 0.162702 0.48946
73 1 0.0122065 -0.00271212 0.672785
74 1 0.164077 0.167867 0.658113
75 1 0.16342 0.00123972 0.814962
76 1 0.00478726 0.162273 0.827984
51 1 0.168749 0.330419 0.497848
85 1 -0.00412172 0.339625 0.668674
87 1 0.165521 0.33885 0.828176
44 1 0.33157 0.169965 0.500201
77 1 0.322529 -0.00129319 0.657968
80 1 0.324545 0.170794 0.839039
89 1 0.331028 0.32826 0.673781
43 1 0.48968 -0.0135943 0.499794
78 1 0.484885 0.159834 0.662253
79 1 0.495503 0.00144311 0.828385
55 1 0.505959 0.333799 0.510831
91 1 0.506986 0.334328 0.841868
47 1 0.823489 -3.63112e-05 0.500581
48 1 0.653435 0.158037 0.498334
81 1 0.657521 0.00717698 0.676649
82 1 0.841575 0.159004 0.66463
83 1 0.829553 0.0117988 0.835325
84 1 0.667423 0.174926 0.831373
59 1 0.827043 0.340335 0.500378
93 1 0.66268 0.335696 0.662183
95 1 0.828937 0.339398 0.828428
52 1 -0.00126674 0.489384 0.49403
86 1 0.171063 0.506315 0.652009
88 1 0.000473161 0.500323 0.827601
63 1 0.14462 0.675265 0.498311
64 1 -0.0181627 0.827166 0.492291
97 1 -0.00357151 0.679649 0.667074
98 1 0.169815 0.822451 0.670772
99 1 0.169176 0.669252 0.838712
100 1 -0.00338849 0.842893 0.843156
56 1 0.325815 0.500662 0.498162
92 1 0.337105 0.512282 0.830083
68 1 0.320009 0.825219 0.488926
101 1 0.32525 0.666395 0.675117
104 1 0.328996 0.824465 0.834799
90 1 0.488314 0.499072 0.672998
67 1 0.500929 0.672081 0.511612
102 1 0.492566 0.827977 0.668404
103 1 0.50275 0.659717 0.833361
60 1 0.663424 0.507093 0.508839
94 1 0.83973 0.504959 0.676539
96 1 0.661474 0.512328 0.829346
71 1 0.834972 0.654354 0.501084
72 1 0.656403 0.829134 0.51348
105 1 0.678263 0.675157 0.673667
106 1 0.83698 0.838053 0.671682
107 1 0.837263 0.66319 0.834902
108 1 0.674052 0.839576 0.832393
ITEM: TIMESTEP
12000
ITEM: NUMBER OF ATOMS
108
ITEM: BOX BOUNDS pp pp pp
-1.4644708335206147e-02 1.2114171760655989e+01
-1.4644708335206147e-02 1.2114171760655989e+01
-1.4644708335206147e-02 1.2114171760655989e+01
ITEM: ATOMS id type xs ys zs
1 1 0.0151911 0.00484875 -0.00259568
2 1 0.165755 0.177663 0.0104195
3 1 0.161702 0.00325148 0.179647
4 1 0.000586321 0.167901 0.160715
37 1 -0.00121701 -0.00205893 0.326319
38 1 0.164388 0.168869 0.332813
13 1 -8.61804e-06 0.332446 0.00392466
15 1 0.171981 0.335409 0.174092
49 1 -0.00112038 0.336248 0.33572
5 1 0.326213 0.0175414 0.00747979
8 1 0.331083 0.164934 0.172563
41 1 0.341515 -0.00119371 0.336975
17 1 0.348853 0.325069 0.00448455
53 1 0.339785 0.335084 0.334046
6 1 0.507991 0.167295 0.000112829
7 1 0.492559 0.00517955 0.169269
42 1 0.495539 0.160749 0.337503
19 1 0.502092 0.321105 0.170689
9 1 0.662472 0.0119018 -0.00948482
10 1 0.823143 0.15242 -0.00186655
11 1 0.832084 -0.0084882 0.164492
12 1 0.658629 0.157451 0.171936
45 1 0.658039 -0.000155457 0.335441
46 1 0.834381 0.174118 0.319026
21 1 0.665261 0.317328 -0.00156832
23 1 0.833907 0.32729 0.161976
57 1 0.666824 0.343059 0.336847
14 1 0.172394 0.502362 0.00379562
16 1 -0.000722252 0.501253 0.163861
50 1 0.169481 0.49715 0.331948
25 1 -0.000270461 0.668153 0.00276673
26 1 0.164868 0.837273 -0.00621923
27 1 0.173046 0.670252 0.185172
28 1 0.00168456 0.842946 0.163571
61 1 -0.0028756 0.677086 0.335952
62 1 0.168408 0.823509 0.343056
20 1 0.335984 0.501168 0.167709
29 1 0.331154 0.66732 -0.00279033
32 1 0.343815 0.832987 0.157259
65 1 0.334617 0.652669 0.334809
18 1 0.507002 0.49647 -0.0123522
54 1 0.509761 0.496292 0.340376
30 1 0.509873 0.847276 0.00789866
31 1 0.496909 0.662758 0.17348
66 1 0.496675 0.832833 0.332508
22 1 0.832315 0.492104 0.00625361
24 1 0.661741 0.505665 0.164857
58 1 0.840226 0.489481 0.337249
33 1 0.67001 0.673194 0.00740739
34 1 0.827694 0.837477 -0.00648267
35 1 0.843333 0.659142 0.171236
36 1 0.668743 0.842527 0.166558
69 1 0.670414 0.665749 0.317876
70 1 0.8338 0.831712 0.333742
39 1 0.167141 -0.000170286 0.492488
40 1 -0.00355556 0.151575 0.494415
73 1 9.9446e-05 0.000258117 0.663285
74 1 0.162767 0.174525 0.66092
75 1 0.171128 7.83941e-05 0.827581
76 1 -0.00134603 0.155828 0.829389
51 1 0.169951 0.34213 0.492434
85 1 -0.0105744 0.323743 0.663674
87 1 0.175513 0.339989 0.845333
44 1 0.335938 0.171528 0.493831
77 1 0.331881 0.0133144 0.661964
80 1 0.335688 0.173268 0.8289
89 1 0.319816 0.342472 0.669605
43 1 0.494816 -0.0090594 0.509301
78 1 0.495592 0.16446 0.661832
79 1 0.48846 0.0128881 0.831543
55 1 0.506392 0.336872 0.508194
91 1 0.484528 0.341575 0.825048
47 1 0.827235 0.0134684 0.493126
48 1 0.650332 0.166923 0.508709
81 1 0.663476 -0.00588344 0.664459
82 1 0.836389 0.150927 0.656152
83 1 0.829922 -0.0107188 0.821145
84 1 0.664107 0.162878 0.82097
59 1 0.841078 0.310264 0.506673
93 1 0.6685 0.329747 0.671408
95 1 0.838964 0.30494 0.827953
52 1 0.00370406 0.510408 0.491653
86 1 0.150873 0.495802 0.659793
88 1 -0.00362427 0.491083 0.821249
63 1 0.183711 0.669687 0.500727
64 1 -0.0102456 0.843405 0.492673
97 1 0.00694871 0.677507 0.660431
98 1 0.176684 0.832864 0.672351
99 1 0.15968 0.649852 0.831082
100 1 0.00561374 0.839772 0.831786
56 1 0.341463 0.4988 0.501823
92 1 0.337217 0.497824 0.847551
68 1 0.329402 0.825513 0.493019
101 1 0.332539 0.67145 0.667861
104 1 0.333627 0.8459 0.845582
90 1 0.487224 0.508869 0.684614
67 1 0.505235 0.674303 0.49705
102 1 0.495351 0.836132 0.681726
103 1 0.502303 0.677686 0.838913
60 1 0.656519 0.516277 0.518966
94 1 0.837969 0.486381 0.665596
96 1 0.682367 0.492077 0.838646
71 1 0.819835 0.657923 0.502034
72 1 0.676534 0.839851 0.499074
105 1 0.650097 0.677575 0.660692
106 1 0.835251 0.827246 0.661053
107 1 0.83025 0.659989 0.824372
108 1 0.671528 0.835936 0.826879
ITEM: TIMESTEP
14000
ITEM: NUMBER OF ATOMS
108
ITEM: BOX BOUNDS pp pp pp
-1.0491637744130422e-02 1.2110018690064884e+01
-1.0491637744130422e-02 1.2110018690064884e+01
-1.0491637744130422e-02 1.2110018690064884e+01
ITEM: ATOMS id type xs ys zs
1 1 -0.0144349 -6.24923e-05 0.00268407
2 1 0.179788 0.164596 0.0039554
3 1 0.174321 -0.0178996 0.163139
4 1 0.00254077 0.157435 0.171108
37 1 0.0012526 -0.0138584 0.331195
38 1 0.165495 0.153334 0.33171
13 1 0.00665969 0.340388 0.0155513
15 1 0.16286 0.323314 0.162161
49 1 0.00542581 0.329115 0.328383
5 1 0.337344 0.00259737 -0.00961208
8 1 0.339674 0.170475 0.168276
41 1 0.332162 0.00230551 0.344097
17 1 0.334643 0.32989 0.000963932
53 1 0.331589 0.342817 0.332326
6 1 0.503249 0.162603 0.00420712
7 1 0.508182 -0.00774906 0.178803
42 1 0.488605 0.170545 0.337666
19 1 0.507347 0.330393 0.159538
9 1 0.672451 0.00791895 -0.000229675
10 1 0.83496 0.1749 -0.00390064
11 1 0.828543 -0.0116646 0.173564
12 1 0.672066 0.156651 0.168028
45 1 0.659873 0.0103805 0.334343
46 1 0.828093 0.170637 0.325469
21 1 0.678177 0.331016 0.00309008
23 1 0.833981 0.330981 0.166677
57 1 0.670293 0.34047 0.334086
14 1 0.168608 0.504184 0.0092573
16 1 -0.00580782 0.505868 0.1717
50 1 0.16528 0.509262 0.332657
25 1 -0.00860087 0.675784 -0.00122198
26 1 0.158852 0.825085 0.00142633
27 1 0.169655 0.671258 0.169076
28 1 -0.00937373 0.829208 0.16208
61 1 -0.00862658 0.660445 0.33529
62 1 0.160699 0.827256 0.344747
20 1 0.332863 0.504911 0.165979
29 1 0.328866 0.673681 -0.00224105
32 1 0.334468 0.833181 0.173345
65 1 0.337738 0.674519 0.33855
18 1 0.499512 0.494332 -0.0181478
54 1 0.491826 0.493132 0.327483
30 1 0.49546 0.839224 0.000665923
31 1 0.500155 0.662852 0.166443
66 1 0.493433 0.830651 0.33402
22 1 0.830728 0.510414 -0.00429216
24 1 0.655805 0.50365 0.171231
58 1 0.831149 0.495594 0.334055
33 1 0.662541 0.663985 0.00110898
34 1 0.819149 0.835561 0.00274503
35 1 0.821336 0.663124 0.168215
36 1 0.653232 0.821775 0.16851
69 1 0.666828 0.665042 0.333659
70 1 0.832399 0.824834 0.322171
39 1 0.170479 -0.00227157 0.493844
40 1 0.0116501 0.16472 0.504849
73 1 -0.0133965 0.00262335 0.67427
74 1 0.167734 0.177998 0.663343
75 1 0.166196 -0.0068799 0.83688
76 1 0.0166141 0.175371 0.833677
51 1 0.170755 0.336583 0.503169
85 1 -0.00143582 0.334057 0.65959
87 1 0.167616 0.331291 0.83662
44 1 0.335513 0.171204 0.494503
77 1 0.325756 0.00973203 0.667555
80 1 0.346316 0.157464 0.830094
89 1 0.339031 0.331383 0.661749
43 1 0.505267 0.00166809 0.511106
78 1 0.503353 0.174823 0.663356
79 1 0.510008 0.00488788 0.825319
55 1 0.498679 0.329272 0.50413
91 1 0.496857 0.329142 0.833206
47 1 0.83298 0.00666319 0.48807
48 1 0.675308 0.172412 0.495364
81 1 0.67067 0.00805841 0.657227
82 1 0.833268 0.167071 0.673781
83 1 0.824251 0.00878803 0.841789
84 1 0.672495 0.182276 0.828215
59 1 0.837955 0.326016 0.49981
93 1 0.671442 0.339871 0.664164
95 1 0.844572 0.354401 0.835004
52 1 -0.00741844 0.499665 0.499571
86 1 0.164135 0.50334 0.672239
88 1 -0.00476582 0.504208 0.82756
63 1 0.172177 0.656276 0.510574
64 1 0.00594015 0.829155 0.507777
97 1 -0.00734117 0.67453 0.685872
98 1 0.172305 0.834271 0.668536
99 1 0.166934 0.665057 0.828288
100 1 0.000141093 0.831836 0.838477
56 1 0.331296 0.502188 0.509912
92 1 0.33447 0.4999 0.8312
68 1 0.328174 0.832277 0.503706
101 1 0.34273 0.669725 0.674254
104 1 0.329469 0.826232 0.831258
90 1 0.496116 0.49553 0.654471
67 1 0.50902 0.660022 0.488448
102 1 0.502017 0.82487 0.670766
103 1 0.503716 0.665803 0.834063
60 1 0.656847 0.497888 0.490341
94 1 0.843696 0.492311 0.665714
96 1 0.66712 0.495893 0.830541
71 1 0.844581 0.664057 0.499337
72 1 0.668325 0.829622 0.485697
105 1 0.663469 0.664415 0.658213