LAMMPS (17 Nov 2016)
# Affiliation: Dept. Materials Science and Engineering
# University of Arizona
# Abduljabar Alsayoud


# Units energy:eV time:ps distance:angstrom flux:energy*velocity
#---------Sim variables---------------
variable fileprefix string  optimized.data
variable temp_s equal '250.0'
variable press_s equal '0.0'
log log.${fileprefix}
log log.optimized.data
