LAMMPS (17 Nov 2016)
Reading data file ...
  orthogonal box = (-0.0248818 -0.0248818 -0.0248818) to (4.02488 4.02488 4.02488)
  1 by 1 by 1 MPI processor grid
  reading atoms ...
  4 atoms
  reading velocities ...
  4 velocities
Replicating atoms ...
  orthogonal box = (-0.0248818 -0.0248818 -0.0248818) to (40.4728 40.4728 40.4728)
  1 by 1 by 1 MPI processor grid
  4000 atoms
Neighbor list info ...
  1 neighbor list requests
  update every 1 steps, delay 10 steps, check yes
  max neighbors/atom: 2000, page size: 100000
  master list distance cutoff = 8.28721
  ghost atom cutoff = 8.28721
  binsize = 4.1436, bins = 10 10 10
Setting up Verlet run ...
  Unit style    : metal
  Current step  : 0
  Time step     : 0.001
Memory usage per processor = 4.09116 Mbytes
Step PotEng KinEng TotEng Enthalpy Temp Volume Press 
       0   -13439.999    206.76453   -13233.235   -13089.545          400    66418.489     3466.159 
    1000    -13321.83    129.14764   -13192.683   -13068.208    249.84487    66750.539    2987.6917 
    2000   -13287.275      156.089   -13131.186   -13146.084    301.96476    67197.754   -355.22264 
    3000   -13251.201    186.26808   -13064.933    -13137.75    360.34823    67513.631   -1728.0279 
    4000   -13230.082    214.87625   -13015.206     -13104.9    415.69268    67676.673   -2123.4223 
    5000   -13225.763    210.42765   -13015.335   -13051.122    407.08656    67589.916   -848.30269 
    6000    -13237.58    199.95005    -13037.63   -13022.053    386.81692     67413.41    370.19666 
    7000    -13231.07     208.1836   -13022.887   -12979.562     402.7453    67410.586     1029.716 
    8000   -13226.078    210.86238   -13015.216   -12973.049    407.92757    67434.769    1001.8414 
    9000   -13236.529     204.0269   -13032.502   -13017.741    394.70388    67427.412    350.74533 
   10000   -13230.741    203.69899   -13027.042   -13031.966    394.06951    67510.609   -116.86972 
   11000   -13225.784    209.75337    -13016.03   -13050.969    405.78212    67582.959   -828.28129 
   12000   -13236.537    207.27362   -13029.263   -13061.045    400.98487    67529.605   -754.02834 
   13000   -13234.093    204.72624   -13029.367    -13034.71    396.05678    67489.025   -126.84427 
   14000   -13231.121    213.64727   -13017.474   -13015.971    413.31512    67489.725    35.679496 
   15000    -13230.77    204.87028     -13025.9   -12999.098    396.33545    67441.777    636.71971 
   16000   -13234.998    204.47679   -13030.522   -13007.357    395.57422    67426.285    550.42396 
   17000   -13230.744    211.39119   -13019.353   -13018.452    408.95058     67505.61    21.383053 
   18000   -13230.799    207.27073   -13023.528   -13039.898    400.97928    67523.177   -388.42296 
   19000   -13237.279    206.05827   -13031.221   -13060.929     398.6337    67517.567   -704.97094 
   20000   -13231.264    209.91134   -13021.353   -13039.648    406.08773    67539.783   -433.99722 
   21000   -13228.679     207.3934   -13021.285   -13016.272     401.2166    67491.833    119.00663 
   22000   -13236.003    205.13119   -13030.872   -13007.477     396.8402    67425.556    555.90549 
   23000   -13229.502    205.85011   -13023.652   -12994.455    398.23099    67440.039    693.62095 
   24000   -13230.104    210.21369    -13019.89   -13010.088    406.67263    67483.057     232.7139 
   25000   -13235.114    205.75316   -13029.361   -13040.696    398.04344     67492.03   -269.08433 
   26000   -13232.087     205.7933   -13026.294   -13058.937    398.12109     67544.92   -774.31071 
   27000   -13229.147    209.54671     -13019.6    -13055.27    405.38232    67579.611   -845.64443 
   28000   -13230.833    203.46535   -13027.368   -13034.043    393.61752    67500.527   -158.44567 
   29000   -13232.064    204.14691   -13027.917   -13000.038    394.93604    67430.174     662.4358 
   30000   -13230.042    210.32332   -13019.719   -12971.804    406.88472    67404.133    1138.9343 
   31000   -13234.163    208.58245   -13025.581   -12982.458    403.51689    67385.994    1025.2807 
   32000   -13233.784    204.82822   -13028.956   -13025.717    396.25409    67467.251     76.92629 
   33000   -13232.717    211.98274   -13020.735   -13079.241    410.09499     67601.52   -1386.6052 
   34000   -13229.842    205.70615   -13024.136    -13098.92     397.9525    67645.539   -1771.2687 
   35000   -13233.871    204.32019   -13029.551    -13080.11    395.27126    67571.495   -1198.7939 
   36000    -13228.16    207.11319   -13021.046   -13011.522    400.67451    67487.434    226.11305 
   37000   -13231.763    208.20464   -13023.559   -12963.706      402.786      67375.2    1423.2897 
   38000    -13234.95    209.43512   -13025.515   -12960.661    405.16644    67352.349    1542.7425 
   39000   -13229.294    205.53513   -13023.759   -12983.405    397.62165    67423.084    958.94349 
   40000   -13224.993     208.3079   -13016.685   -13029.396    402.98575    67537.164   -301.54733 
   41000    -13233.66    207.19661   -13026.463    -13062.34     400.8359    67550.561   -850.92396 
   42000   -13231.419    206.10217   -13025.317   -13060.268    398.71862    67552.211   -828.94404 
   43000   -13226.663    208.88362   -13017.779   -13035.665    404.09953    67554.824   -424.19833 
   44000   -13235.056    206.42123   -13028.635   -13013.039    399.33587     67446.27    370.47557 
   45000   -13231.497    208.37676    -13023.12   -12996.116    403.11897      67431.3    641.62319 
   46000   -13232.713     210.3205   -13022.392   -13008.899    406.87926    67450.121    320.51341 
   47000   -13235.085    204.90889   -13030.176    -13029.25    396.41014    67464.575    21.989672 
   48000    -13227.73     205.5196   -13022.211   -13034.085    397.59161    67529.036   -281.72586 
   49000   -13229.001    204.42654   -13024.575   -13045.132      395.477    67541.015   -487.65212 
   50000   -13231.625    205.22087   -13026.404   -13044.835    397.01369    67522.065    -437.3246 
   51000   -13227.664    211.07224   -13016.592   -13017.446    408.33355      67523.1   -20.252082 
   52000    -13233.22    207.08987    -13026.13   -13001.498    400.62939    67426.463    585.29794 
   53000   -13234.572     208.0336   -13026.538    -12993.43     402.4551    67410.153    786.91269 
   54000   -13227.254    209.11541   -13018.139   -12997.782    404.54794    67466.014    483.43396 
   55000   -13227.687    204.45104   -13023.236   -13030.411    395.52441    67506.902   -170.27748 
   56000   -13231.663    204.71474   -13026.948   -13064.034    396.03455     67544.43   -879.68458 
   57000   -13230.764    203.03981   -13027.725   -13067.148    392.79429    67559.739   -934.91621 
   58000    -13228.69    208.27089   -13020.419   -13041.695    402.91416    67543.075   -504.68067 
   59000   -13233.468    204.55429   -13028.914   -13014.005    395.72414    67445.579    354.15117 
   60000   -13234.999    208.17399   -13026.825   -12990.306    402.72671    67405.828    868.01306 
Loop time of 2764.62 on 1 procs for 60000 steps with 4000 atoms

Performance: 1.875 ns/day, 12.799 hours/ns, 21.703 timesteps/s
24.9% CPU use with 1 MPI tasks x no OpenMP threads

MPI task timing breakdown:
Section |  min time  |  avg time  |  max time  |%varavg| %total
---------------------------------------------------------------
Pair    | 2702.7     | 2702.7     | 2702.7     |   0.0 | 97.76
Neigh   | 0.12301    | 0.12301    | 0.12301    |   0.0 |  0.00
Comm    | 10.821     | 10.821     | 10.821     |   0.0 |  0.39
Output  | 0.53142    | 0.53142    | 0.53142    |   0.0 |  0.02
Modify  | 43.194     | 43.194     | 43.194     |   0.0 |  1.56
Other   |            | 7.208      |            |       |  0.26

Nlocal:    4000 ave 4000 max 4000 min
Histogram: 1 0 0 0 0 0 0 0 0 0
Nghost:    7914 ave 7914 max 7914 min
Histogram: 1 0 0 0 0 0 0 0 0 0
Neighs:    278727 ave 278727 max 278727 min
Histogram: 1 0 0 0 0 0 0 0 0 0

Total # of neighbors = 278727
Ave neighs/atom = 69.6817
Neighbor list builds = 3
Dangerous builds = 0
All done
Total wall time: 0:46:04
