LAMMPS (17 Nov 2016)
Reading data file ...
  orthogonal box = (-0.0248818 -0.0248818 -0.0248818) to (4.02488 4.02488 4.02488)
  1 by 1 by 1 MPI processor grid
  reading atoms ...
  4 atoms
  reading velocities ...
  4 velocities
Replicating atoms ...
  orthogonal box = (-0.0248818 -0.0248818 -0.0248818) to (40.4728 40.4728 40.4728)
  1 by 1 by 1 MPI processor grid
  4000 atoms
Neighbor list info ...
  1 neighbor list requests
  update every 1 steps, delay 10 steps, check yes
  max neighbors/atom: 2000, page size: 100000
  master list distance cutoff = 8.28721
  ghost atom cutoff = 8.28721
  binsize = 4.1436, bins = 10 10 10
Setting up Verlet run ...
  Unit style    : metal
  Current step  : 0
  Time step     : 0.001
Memory usage per processor = 4.09116 Mbytes
Step PotEng KinEng TotEng Enthalpy Temp Volume Press 
       0   -13439.999     155.0734   -13284.926   -13175.697          300    66418.489    2634.8813 
    1000   -13351.611    97.458141   -13254.152   -13104.903    188.53938    66540.851    3593.6358 
    2000   -13327.085    119.05799   -13208.027   -13103.991    230.32576    66745.146    2497.3212 
    3000   -13300.108    141.50287   -13158.606    -13077.14     273.7469    66928.408     1950.171 
    4000   -13282.368    160.51971   -13121.849   -13058.213    310.53626    67064.933    1520.2544 
    5000    -13280.94    157.00075   -13123.939   -13062.721    303.72861    67070.009    1462.3878 
    6000   -13292.363    152.72108   -13139.642   -13092.131    295.44929    67036.679    1135.5208 
    7000   -13284.278      156.585   -13127.693   -13083.403     302.9243    67083.439    1057.7841 
    8000   -13283.116    159.32186   -13123.794   -13084.877    308.21895    67105.411    929.16927 
    9000   -13288.484    151.97634   -13136.507   -13102.682    294.00853    67078.053    807.92697 
   10000   -13287.126    156.78127   -13130.344   -13102.873    303.30399    67107.644    655.86721 
   11000   -13282.352     158.2588   -13124.093   -13096.797    306.16238    67135.183    651.42867 
   12000   -13287.847    153.34849   -13134.498   -13111.591    296.66305    67107.526    546.91203 
   13000   -13283.844    151.61814   -13132.226   -13099.834    293.31557    67123.088    773.16461 
   14000   -13283.928    159.47887   -13124.449   -13106.696    308.52268    67146.116    423.61333 
   15000   -13284.246    151.70525   -13132.541   -13108.837    293.48409    67130.389    565.74649 
   16000   -13286.589    153.29774   -13133.291   -13116.658    296.56488    67125.201    397.01013 
   17000   -13283.775    158.70387   -13125.071   -13113.805    307.02339    67158.827    268.76913 
   18000   -13287.599    156.56809   -13131.031   -13119.354    302.89158    67138.859    278.65374 
   19000   -13289.707    155.57868   -13134.128   -13124.726    300.97751    67132.752    224.38552 
   20000   -13284.068    157.88157   -13126.186   -13114.921    305.43261    67157.472    268.76526 
   21000   -13283.496      153.965   -13129.531   -13114.459    297.85573    67147.109    359.63021 
   22000   -13287.122    152.80569   -13134.316    -13111.09    295.61297    67120.748    554.42157 
   23000   -13283.703    156.24498   -13127.458   -13104.093    302.26651    67139.105    557.57067 
   24000   -13281.567    153.37594   -13128.191   -13099.994    296.71615    67131.569     672.9555 
   25000   -13288.814    154.74683   -13134.068   -13104.185    299.36823    67101.425    713.50408 
   26000    -13283.61    154.98867   -13128.621   -13095.572     299.8361    67115.612    788.95941 
   27000   -13282.989    155.78226   -13127.207   -13088.902    301.37134     67109.62    914.48261 
   28000   -13287.346    153.65948   -13133.686   -13089.233    297.26469    67077.951    1061.7865 
   29000   -13287.171    157.42994   -13129.741   -13087.367     304.5589    67082.535    1012.0488 
   30000   -13282.312     155.7029   -13126.609   -13072.495    301.21782    67078.826    1292.5126 
   31000   -13286.673    153.96606   -13132.707   -13076.734    297.85779    67055.805    1337.3733 
   32000   -13282.487    151.36315   -13131.124   -13065.177    292.82228    67048.343    1575.8711 
   33000   -13281.205    154.72622   -13126.479   -13062.841    299.32837    67065.202     1520.303 
   34000   -13285.967    154.13759   -13131.829   -13066.129    298.18962    67038.075    1570.2139 
   35000   -13288.608    157.08571   -13131.522   -13070.073    303.89295    67040.575    1468.5426 
   36000   -13284.487    157.95615    -13126.53   -13066.107    305.57687    67065.403    1443.4896 
   37000   -13282.958    153.39827    -13129.56   -13069.675    296.75936    67061.824    1430.7186 
   38000   -13285.058     154.4753   -13130.583   -13083.393    298.84295    67077.871     1127.134 
   39000    -13283.64    153.71289   -13129.927   -13082.711    297.36802    67085.508    1127.6356 
   40000    -13284.41    156.71341   -13127.696   -13088.506    303.17273    67108.716    935.64208 
   41000   -13285.861    152.63348   -13133.227   -13101.183    295.27982    67100.638    765.13993 
   42000   -13284.388    154.11277   -13130.275   -13097.462     298.1416    67114.207    783.33079 
   43000   -13285.619    157.51389   -13128.105   -13101.419     304.7213    67122.901    636.98037 
   44000   -13285.372    152.56093   -13132.811   -13100.983    295.13947    67109.808    759.87798 
   45000   -13287.793     158.3643   -13129.428   -13101.638    306.36649    67120.725    663.36903 
   46000   -13284.372    157.00208    -13127.37   -13102.758    303.73116    67132.248    587.37073 
   47000   -13283.393    150.47304    -13132.92   -13106.871    291.10031    67122.148    621.78204 
   48000   -13286.077    155.77024   -13130.307   -13108.989     301.3481    67129.611    508.80843 
   49000   -13285.541    156.00149   -13129.539   -13115.162    301.79547    67138.041    343.11065 
   50000   -13286.608    150.77444   -13135.834   -13116.152    291.68337    67124.521    469.78105 
   51000   -13285.893    153.87604   -13132.017   -13123.159    297.68364     67148.74    211.35422 
   52000   -13285.294    157.12344    -13128.17   -13126.456    303.96595    67170.992    40.892835 
   53000   -13284.942    150.92452   -13134.017   -13124.286    291.97372    67149.625    232.17758 
   54000   -13285.415    153.49619   -13131.919   -13125.537    296.94879    67157.838    152.24023 
   55000   -13284.196    154.52255   -13129.674   -13125.052    298.93436    67167.374    110.23448 
   56000    -13287.02    156.29275   -13130.727   -13131.056    302.35893    67163.837   -7.8464062 
   57000   -13290.315    156.19927   -13134.116   -13131.989    302.17807    67146.415    50.756475 
   58000   -13282.404    155.19865   -13127.205    -13122.62    300.24232    67175.214    109.34522 
   59000   -13284.447    154.31177   -13130.136   -13120.773    298.52659    67163.724    223.34025 
   60000   -13285.092    152.69767   -13132.395   -13126.309    295.40399    67159.929    145.17075 
Loop time of 1380.33 on 1 procs for 60000 steps with 4000 atoms

Performance: 3.756 ns/day, 6.390 hours/ns, 43.468 timesteps/s
49.5% CPU use with 1 MPI tasks x no OpenMP threads

MPI task timing breakdown:
Section |  min time  |  avg time  |  max time  |%varavg| %total
---------------------------------------------------------------
Pair    | 1348.2     | 1348.2     | 1348.2     |   0.0 | 97.67
Neigh   | 0          | 0          | 0          |   0.0 |  0.00
Comm    | 5.2701     | 5.2701     | 5.2701     |   0.0 |  0.38
Output  | 0.20909    | 0.20909    | 0.20909    |   0.0 |  0.02
Modify  | 21.611     | 21.611     | 21.611     |   0.0 |  1.57
Other   |            | 5.072      |            |       |  0.37

Nlocal:    4000 ave 4000 max 4000 min
Histogram: 1 0 0 0 0 0 0 0 0 0
Nghost:    8195 ave 8195 max 8195 min
Histogram: 1 0 0 0 0 0 0 0 0 0
Neighs:    280000 ave 280000 max 280000 min
Histogram: 1 0 0 0 0 0 0 0 0 0

Total # of neighbors = 280000
Ave neighs/atom = 70
Neighbor list builds = 0
Dangerous builds = 0
All done
Total wall time: 0:23:00
