LAMMPS (17 Nov 2016)
Reading data file ...
  orthogonal box = (-0.0248818 -0.0248818 -0.0248818) to (4.02488 4.02488 4.02488)
  1 by 1 by 1 MPI processor grid
  reading atoms ...
  4 atoms
  reading velocities ...
  4 velocities
Replicating atoms ...
  orthogonal box = (-0.0248818 -0.0248818 -0.0248818) to (12.1244 12.1244 12.1244)
  1 by 1 by 1 MPI processor grid
  108 atoms
Neighbor list info ...
  1 neighbor list requests
  update every 1 steps, delay 10 steps, check yes
  max neighbors/atom: 2000, page size: 100000
  master list distance cutoff = 8.28721
  ghost atom cutoff = 8.28721
  binsize = 4.1436, bins = 3 3 3
Setting up Verlet run ...
  Unit style    : metal
  Current step  : 0
  Time step     : 0.001
Memory usage per processor = 3.67723 Mbytes
Step PotEng KinEng TotEng Enthalpy Temp Volume Press 
       0   -362.87998    3.4577089   -359.42228   -356.95926          250    1793.2992    2200.5147 
    1000   -360.48321     2.382514    -358.1007   -354.74094    172.26103    1797.3607    2994.9042 
    2000     -359.014    2.8304429   -356.18356   -353.98054    204.64728    1805.2804    1955.1695 
    3000   -359.84541    4.4914176   -355.35399   -357.30511    324.73943     1812.359   -1724.8447 
    4000   -359.45308    3.0902897   -356.36279   -358.81887    223.43478    1813.7931   -2169.5271 
    5000   -359.45631    3.3032982   -356.15301   -360.25204    238.83577    1816.5968   -3615.2082 
    6000   -359.25254    3.7064498   -355.54609   -359.41033    267.98452    1818.4788   -3404.6014 
    7000   -359.58651    3.1413301   -356.44518   -358.73396    227.12511    1812.5829   -2023.0962 
    8000   -360.04081     3.891192   -356.14962   -356.51121    281.34179    1808.3142   -320.36952 
    9000   -359.50904    3.5984148   -355.91062     -351.428    260.17335    1799.9105    3990.1706 
   10000   -359.67147    3.5494007   -356.12207   -348.06687    256.62952    1792.5069    7199.8942 
   11000     -359.539    3.0957409   -356.44326   -346.44878    223.82891    1789.7635    8946.9493 
   12000   -359.33911    3.7099015   -355.62921   -349.12861    268.23408    1797.7724    5793.3382 
   13000   -359.56367    3.4415616   -356.12211   -356.58033    248.83252    1808.6258   -405.92228 
   14000   -359.98437    2.8333671   -357.15101   -362.97897    204.85871    1817.8196   -5136.6065 
   15000   -359.12231    3.0951646   -356.02715   -365.39288    223.78725    1829.6393   -8201.3749 
   16000     -359.318    3.7062827   -355.61171   -365.90921    267.97244     1830.824   -9011.4687 
   17000   -359.65114     3.280672   -356.37047   -362.95311    237.19984    1821.1203   -5791.2431 
   18000   -359.33319    3.4962123   -355.83698   -356.31657    252.78388    1812.0435   -424.04538 
   19000   -359.46699    3.7659634   -355.70103   -352.13346    272.28748    1803.0107     3170.188 
   20000   -359.64976    3.3591779   -356.29058   -350.43492    242.87599    1796.5721    5222.0545 
   21000   -358.79255    3.5847952   -355.20776   -348.47626    259.18862    1799.2306    5994.2581 
   22000   -359.61732    3.8707589   -355.74656   -352.02646    279.86443    1801.2846    3308.8865 
   23000   -359.66335    3.4577741   -356.20557   -354.82211    250.00472    1806.7379    1226.8271 
   24000   -359.23727    3.9656299   -355.27164   -357.85501    286.72381    1816.0085   -2279.1778 
   25000   -359.69563    3.9327269    -355.7629   -360.74851    284.34486    1819.1842   -4390.8884 
   26000   -359.51112    3.4484791   -356.06264   -361.31588    249.33267     1819.648   -4625.4095 
   27000    -359.2851    3.4165055    -355.8686   -359.30566    247.02091    1817.3098   -3030.1856 
   28000   -359.45148    3.9973495   -355.45413   -357.56654    289.01721    1813.4719   -1866.2805 
   29000   -359.66955    3.3039377   -356.36562   -355.07016      238.882    1805.9534    1149.2848 
   30000   -359.13269    3.2821636   -355.85053   -352.37046    237.30768     1803.553    3091.4966 
   31000   -359.19829    4.3357282   -354.86256   -350.65232    313.48274    1803.9562    3739.3068 
   32000   -359.31484    3.6439195   -355.67092   -351.32202    263.46344    1802.9035    3864.7103 
   33000   -359.50156    3.2604404   -356.24112   -354.36968    235.73705     1805.373    1660.8095 
   34000   -358.78309    3.0074089   -355.77568    -356.2443    217.44231    1812.4497   -414.24695 
   35000   -359.00408    3.4462493   -355.55783   -360.07831    249.17145    1819.5329   -3980.4777 
   36000   -359.72137    3.5952956   -356.12608   -363.96096    259.94782    1823.7859    -6882.858 
   37000     -359.126    3.3503237   -355.77568   -363.15273    242.23582    1825.7965   -6473.5234 
   38000   -359.04064    3.6776511   -355.36299   -360.69098    265.90231    1821.8324   -4685.6002 
   39000   -359.52931    3.1885093    -356.3408   -354.95969    230.53628    1806.4065    1224.9639 
   40000   -359.18696    3.4346785   -355.75228   -347.06342    248.33485    1794.5415     7757.463 
   41000    -359.4706    4.0110563   -355.45955   -344.12151    290.00824    1787.7284    10161.243 
   42000   -359.38241    3.4738484   -355.90857   -344.90943    251.16692    1788.6113    9852.6457 
   43000   -359.41579    3.0391024   -356.37669   -350.16833    219.73382    1797.1901    5534.6894 
   44000   -359.65418    3.6411013   -356.01308   -356.81114    263.25968    1809.8745    -706.4762 
   45000   -359.58987    3.9866964   -355.60318   -361.62339    288.24697    1820.1648    -5299.215 
   46000   -359.61892    3.0909301   -356.52799   -362.52163    223.48108    1820.4064   -5275.1238 
   47000   -359.43893    3.3760086   -356.06292   -361.50584    244.09289     1820.858   -4789.2354 
   48000   -359.38585    3.7126582   -355.67319    -359.8892     268.4334    1817.9929   -3715.5263 
   49000   -359.83176    3.2070997   -356.62466   -357.26285     231.8804    1808.6222   -565.33621 
   50000   -359.26925     3.385348   -355.88391   -353.71226    244.76814    1805.9699     1926.584 
   51000   -359.56611    3.7336478   -355.83246   -351.84243    269.95099     1802.486    3546.6154 
   52000   -360.11327    3.3285514   -356.78472    -352.8148    240.66163    1799.2334    3535.1211 
   53000   -360.02935    3.4383335   -356.59102   -354.01462    248.59912    1802.7137    2289.7973 
   54000   -359.58108    3.6997993   -355.88128   -355.21786    267.50367     1808.321    587.78792 
   55000   -359.28713    3.5446408   -355.74249   -357.61196    256.28537    1814.0253   -1651.1428 
   56000   -359.71221    3.1295666   -356.58264   -359.89428    226.27459    1814.8647   -2923.5414 
   57000   -359.57718    3.6767167   -355.90046   -361.14532    265.83475    1819.5165   -4618.3618 
   58000   -359.07808    3.1331121   -355.94496   -359.76925    226.53094    1818.4637   -3369.4249 
   59000   -359.75759    3.0873139   -356.67027   -358.56944    223.21962    1811.5276   -1679.6871 
   60000   -359.65913    3.4861408   -356.17299   -355.28546    252.05569    1807.4735    786.71475 
Loop time of 21.4123 on 1 procs for 60000 steps with 108 atoms

Performance: 242.104 ns/day, 0.099 hours/ns, 2802.134 timesteps/s
87.2% CPU use with 1 MPI tasks x no OpenMP threads

MPI task timing breakdown:
Section |  min time  |  avg time  |  max time  |%varavg| %total
---------------------------------------------------------------
Pair    | 20.291     | 20.291     | 20.291     |   0.0 | 94.76
Neigh   | 0          | 0          | 0          |   0.0 |  0.00
Comm    | 0.50265    | 0.50265    | 0.50265    |   0.0 |  2.35
Output  | 0.0048091  | 0.0048091  | 0.0048091  |   0.0 |  0.02
Modify  | 0.48514    | 0.48514    | 0.48514    |   0.0 |  2.27
Other   |            | 0.1288     |            |       |  0.60

Nlocal:    108 ave 108 max 108 min
Histogram: 1 0 0 0 0 0 0 0 0 0
Nghost:    1580 ave 1580 max 1580 min
Histogram: 1 0 0 0 0 0 0 0 0 0
Neighs:    7560 ave 7560 max 7560 min
Histogram: 1 0 0 0 0 0 0 0 0 0

Total # of neighbors = 7560
Ave neighs/atom = 70
Neighbor list builds = 0
Dangerous builds = 0
All done
Total wall time: 0:00:21
