LAMMPS (17 Nov 2016)
Reading data file ...
  orthogonal box = (-0.0248818 -0.0248818 -0.0248818) to (4.02488 4.02488 4.02488)
  1 by 1 by 1 MPI processor grid
  reading atoms ...
  4 atoms
  reading velocities ...
  4 velocities
Replicating atoms ...
  orthogonal box = (-0.0248818 -0.0248818 -0.0248818) to (12.1244 12.1244 12.1244)
  1 by 1 by 1 MPI processor grid
  108 atoms
Neighbor list info ...
  1 neighbor list requests
  update every 1 steps, delay 10 steps, check yes
  max neighbors/atom: 2000, page size: 100000
  master list distance cutoff = 8.28721
  ghost atom cutoff = 8.28721
  binsize = 4.1436, bins = 3 3 3
Setting up Verlet run ...
  Unit style    : metal
  Current step  : 0
  Time step     : 0.001
Memory usage per processor = 3.67723 Mbytes
Step PotEng KinEng TotEng Enthalpy Temp Volume Press 
       0   -362.87998    3.4577089   -359.42228   -356.95926          250    1793.2992    2200.5147 
    1000   -360.48319     2.382497    -358.1007   -354.74068     172.2598    1797.3604    2995.1355 
    2000   -359.01408    2.8305166   -356.18357   -353.97992    204.65261     1805.279    1955.7241 
    3000   -359.84525    4.4912404   -355.35401   -357.30336    324.72662    1812.3564   -1723.2885 
    4000   -359.45318    3.0903763    -356.3628   -358.81731    223.44104    1813.7892   -2168.1389 
    5000   -359.45667     3.303641   -356.15303   -360.25024    238.86055    1816.5924   -3613.6086 
    6000   -359.25224    3.7061308   -355.54611   -359.40789    267.96146    1818.4741   -3402.4372 
    7000   -359.58674    3.1415438   -356.44519   -358.73219    227.14057    1812.5791   -2021.5268 
    8000   -360.04102    3.8913818   -356.14964   -356.50981    281.35551    1808.3113   -319.11746 
    9000   -359.50854    3.5978944   -355.91064   -351.42641    260.13572    1799.9088    3991.6102 
   10000   -359.67178    3.5496617   -356.12212   -348.06838    256.64839    1792.5059    7198.5946 
   11000   -359.53925    3.0959979   -356.44325   -346.44951     223.8475    1789.7645    8946.2794 
   12000   -359.33939    3.7101693   -355.62922   -349.12973    268.25344    1797.7741    5792.3411 
   13000   -359.56405    3.4419182   -356.12213    -356.5814     248.8583    1808.6262   -406.84632 
   14000   -359.98417    2.8332302   -357.15094   -362.97335    204.84881    1817.8135   -5131.7327 
   15000   -359.11893    3.0920624   -356.02687    -365.3755    223.56295    1829.6266   -8186.4589 
   16000   -359.32063     3.708688   -355.61194   -365.91059    268.14634    1830.8042   -9012.5727 
   17000   -359.64421    3.2732034   -356.37101   -362.93465    236.65985    1821.0859   -5774.6381 
   18000   -359.33134    3.4958083   -355.83554    -356.3047    252.75467    1811.9999   -414.83856 
   19000   -359.47985    3.7785427   -355.70131   -352.13438    273.19699    1802.9558    3169.7057 
   20000   -359.64529    3.3547565   -356.29054    -350.4024    242.55631    1796.5226      5251.16 
   21000   -358.82648    3.6192968   -355.20718   -348.52578    261.68316    1799.2534    5949.5659 
   22000   -359.57916    3.8316072   -355.74755   -352.00778    277.03367    1801.5449    3325.9103 
   23000   -359.57052    3.3655238     -356.205   -354.85165    243.33482     1806.964    1199.9714 
   24000   -359.29937    4.0293733      -355.27   -357.88203     291.3326    1816.0427   -2304.4257 
   25000   -359.68487     3.919611   -355.76526   -360.67978    283.39655    1819.1471   -4328.3588 
   26000   -359.48962    3.4287448   -356.06088   -361.40044    247.90583    1819.5846    -4701.582 
   27000   -359.29567     3.393512   -355.90216   -359.25639    245.35843    1817.4986   -2956.8491 
   28000   -358.93634    3.4648474   -355.47149   -356.61506    250.51613     1813.362   -1010.3843 
   29000   -359.64523    3.2496949   -356.39554   -354.81454    234.96013    1805.2485    1403.1502 
   30000   -359.34983    3.4350538   -355.91478   -352.09576    248.36199    1802.7462    3394.1189 
   31000   -359.37295    3.6514605   -355.72149   -351.49677    264.00867    1802.2384    3755.7432 
   32000   -359.41898    3.4012661   -356.01772   -352.36108    245.91907    1802.8544     3249.611 
   33000    -359.7131     3.344024   -356.36908   -354.84935    241.78033    1805.6052    1348.5047 
   34000   -359.39595    3.8217131   -355.57424   -357.80968    276.31831    1814.3934     -1973.98 
   35000   -359.79277    3.7968108   -355.99596   -361.63515    274.51782    1820.0565   -4964.1183 
   36000   -359.48933     3.203495   -356.28584   -364.50651    231.61977    1826.3038    -7211.814 
   37000   -359.22114    3.5126155   -355.70853   -364.69142    253.96987    1828.8813   -7869.3921 
   38000   -359.24048    3.1131595   -356.12732   -361.37781    225.08832    1819.4906   -4623.3866 
   39000   -359.89108    3.4791639   -356.41192   -354.38131    251.55125     1804.139    1803.2893 
   40000   -359.49057    3.8729426   -355.61763   -346.32565    280.02231    1792.2377    8306.5925 
   41000   -359.34988    3.4408752   -355.90901    -343.4919    248.78289    1784.7712    11146.749 
   42000    -359.3976    3.3574292   -356.04017   -345.33966    242.74956    1788.8218    9584.0221 
   43000   -359.15091    3.7946419   -355.35627   -350.04014      274.361    1800.2686    4731.1734 
   44000   -359.24896    2.9689712   -356.27999   -355.91118    214.66318    1807.7756    326.86411 
   45000   -359.39115    3.4140859   -355.97706   -359.99409    246.84596    1816.4595   -3543.1534 
   46000   -359.23481     3.835382   -355.39943   -360.75941    277.30661    1821.7271   -4714.0068 
   47000   -359.55959    3.4673485   -356.09224   -361.46689    250.69697    1819.7806   -4731.9594 
   48000   -359.44013    3.4129158   -356.02721   -359.89571    246.76136    1816.6812   -3411.7196 
   49000    -358.7518    3.4536929    -355.2981   -355.51712    249.70964    1813.3678    -193.5101 
   50000   -359.47196    3.3433142   -356.12864   -353.81405    241.72901    1805.0763    2054.4225 
   51000    -359.6943    3.7897585   -355.90454   -352.84355    274.00792     1801.601    2722.1658 
   52000    -358.5897    3.5015552   -355.08815   -349.45068    253.17019    1802.5742    5010.7362 
   53000   -359.54208    3.5603059   -355.98178   -352.31285    257.41799    1802.4079    3261.3417 
   54000   -359.22084    3.1127984   -356.10804   -354.41371    225.06221    1807.2373    1502.0772 
   55000   -359.18205    3.6397789   -355.54227   -357.49074    263.16406    1814.3771   -1720.5906 
   56000   -359.46362    3.5029711   -355.96065    -361.0791    253.27256    1818.5548   -4509.4338 
   57000    -359.5352    3.2705076   -356.26469    -361.7362    236.46494    1819.7262   -4817.3858 
   58000    -359.4653    3.9554517   -355.50985    -360.9713    285.98791    1820.7762   -4805.7538 
   59000   -359.31127    3.7637535   -355.54751   -358.38746    272.12771    1815.7859   -2505.8557 
   60000   -359.66748    3.2684424   -356.39904   -354.19109    236.31561    1804.5637    1960.3215 
Loop time of 18.6404 on 1 procs for 60000 steps with 108 atoms

Performance: 278.105 ns/day, 0.086 hours/ns, 3218.813 timesteps/s
99.4% CPU use with 1 MPI tasks x no OpenMP threads

MPI task timing breakdown:
Section |  min time  |  avg time  |  max time  |%varavg| %total
---------------------------------------------------------------
Pair    | 17.633     | 17.633     | 17.633     |   0.0 | 94.59
Neigh   | 0          | 0          | 0          |   0.0 |  0.00
Comm    | 0.45287    | 0.45287    | 0.45287    |   0.0 |  2.43
Output  | 0.0045812  | 0.0045812  | 0.0045812  |   0.0 |  0.02
Modify  | 0.42633    | 0.42633    | 0.42633    |   0.0 |  2.29
Other   |            | 0.1238     |            |       |  0.66

Nlocal:    108 ave 108 max 108 min
Histogram: 1 0 0 0 0 0 0 0 0 0
Nghost:    1580 ave 1580 max 1580 min
Histogram: 1 0 0 0 0 0 0 0 0 0
Neighs:    7560 ave 7560 max 7560 min
Histogram: 1 0 0 0 0 0 0 0 0 0

Total # of neighbors = 7560
Ave neighs/atom = 70
Neighbor list builds = 0
Dangerous builds = 0
All done
Total wall time: 0:00:18
