LAMMPS (17 Nov 2016)
Reading data file ...
  orthogonal box = (-0.0248818 -0.0248818 -0.0248818) to (4.02488 4.02488 4.02488)
  1 by 1 by 1 MPI processor grid
  reading atoms ...
  4 atoms
  reading velocities ...
  4 velocities
Replicating atoms ...
  orthogonal box = (-0.0248818 -0.0248818 -0.0248818) to (40.4728 40.4728 40.4728)
  1 by 1 by 1 MPI processor grid
  4000 atoms
Neighbor list info ...
  1 neighbor list requests
  update every 1 steps, delay 10 steps, check yes
  max neighbors/atom: 2000, page size: 100000
  master list distance cutoff = 8.28721
  ghost atom cutoff = 8.28721
  binsize = 4.1436, bins = 10 10 10
Setting up Verlet run ...
  Unit style    : metal
  Current step  : 0
  Time step     : 0.001
Memory usage per processor = 4.09116 Mbytes
Step PotEng KinEng TotEng Enthalpy Temp Volume Press 
       0   -13439.999    232.61009   -13207.389   -13046.469          450    66418.489    3881.7979 
    1000   -13306.647    144.54285   -13162.104   -13080.996    279.62795    66919.147    1941.9023 
    2000   -13266.742    174.06206    -13092.68   -13180.787    336.73485    67458.899   -2092.5767 
    3000    -13228.01    209.83824   -13018.172   -13112.245     405.9463     67697.71   -2226.3968 
    4000   -13200.716    239.08951   -12961.627   -12975.092    462.53487    67708.579   -318.63566 
    5000   -13198.927    239.17244   -12959.755   -12905.977    462.69531    67582.798    1274.9181 
    6000   -13211.897    226.68947   -12985.207   -12937.444    438.54615    67509.284     1133.547 
    7000   -13203.629    232.99897   -12970.631   -12981.707    450.75231    67682.277   -262.21346 
    8000   -13195.744    234.63384    -12961.11   -12999.471    453.91507    67786.368   -906.70237 
    9000   -13208.091    227.89419   -12980.197   -13001.366    440.87677    67679.172   -501.14046 
   10000   -13203.085    228.05511    -12975.03   -12958.651    441.18808    67628.675    388.03995 
   11000   -13202.343    241.04223   -12961.301   -12946.853    466.31254    67645.539    342.19051 
   12000   -13208.994    233.16423   -12975.829   -12967.278      451.072    67613.854    202.64332 
   13000   -13204.526    227.21633    -12977.31   -12986.568     439.5654    67661.418   -219.21484 
   14000   -13197.287    233.77096   -12963.516   -12989.247    452.24577    67734.969   -608.61262 
   15000   -13209.279    236.97261   -12972.307   -12982.814    458.43957    67657.541   -248.82149 
   16000   -13206.053    227.34511   -12978.708   -12952.857    439.81453    67586.257     612.8157 
   17000   -13203.229    237.45527   -12965.774   -12955.136    459.37331    67646.996    251.93842 
   18000   -13199.972    230.90315   -12969.068   -12969.339     446.6978    67678.778   -6.4030787 
   19000   -13204.885    225.73114   -12979.154   -12990.014    436.69219    67666.239   -257.15475 
   20000   -13200.937    232.13592   -12968.802   -12972.884    449.08269    67680.378   -96.650996 
   21000   -13197.918    231.05159   -12966.866   -12947.252    446.98496    67648.884    464.54018 
   22000   -13210.679    232.85603   -12977.823   -12966.414    450.47579    67590.637    270.44526 
   23000   -13200.569    229.46778   -12971.101   -12965.664    443.92097    67658.245    128.74089 
   24000   -13201.655      235.351   -12966.304   -12992.314    455.30247     67721.21   -615.34841 
   25000   -13204.467    228.19516   -12976.271   -12995.664    441.45901    67680.299    -459.0802 
   26000   -13208.975    235.68208   -12973.293   -12964.499    455.94297    67623.287    208.35678 
   27000   -13202.599    236.87769   -12965.722   -12927.425    458.25596    67597.653     907.6903 
   28000   -13202.573    228.07477   -12974.498   -12948.819    441.22611     67606.85    608.54292 
   29000   -13206.845    231.54046   -12975.305   -13002.707    447.93072    67702.655   -648.46603 
   30000   -13203.744    237.30746   -12966.437   -13018.348    459.08737    67771.976    -1227.222 
   31000   -13201.622    229.67063   -12971.952   -12981.893     444.3134    67681.126   -235.32942 
   32000   -13209.551    233.51135    -12976.04   -12935.268    451.74354    67554.806    966.95844 
   33000   -13203.323    235.91689   -12967.406   -12911.707    456.39721    67560.241    1320.8912 
   34000   -13199.841    229.06045   -12970.781   -12958.322    443.13298    67655.092    295.03481 
   35000   -13207.751    230.86002   -12976.891   -13045.168    446.61436    67769.299   -1614.1729 
   36000   -13201.406    233.84071   -12967.566   -13032.942    452.38071    67800.251   -1544.8933 
   37000   -13203.191     233.1419   -12970.049   -12949.761    451.02882    67617.077    480.72683 
   38000   -13205.712    234.39174    -12971.32    -12906.65    453.44671    67525.453    1534.4345 
   39000    -13204.84    232.50921   -12972.331   -12936.275    449.80484    67594.388    854.61443 
   40000   -13198.568    231.32872   -12967.239   -12998.525     447.5211    67746.605   -739.89611 
   41000   -13203.952    231.88645   -12972.066   -13033.876    448.60006    67780.797   -1461.0392 
   42000   -13203.026    227.49393   -12975.532   -12982.849    440.10244    67669.697   -173.23029 
   43000   -13203.289    236.71149   -12966.577   -12931.242    457.93442    67599.826    837.47124 
   44000   -13203.513    233.65698   -12969.856   -12939.799    452.02527    67589.057    712.46999 
   45000    -13205.81    229.75713   -12976.053    -12974.12    444.48075     67635.88    45.790578 
   46000   -13200.229     235.2791   -12964.949   -12989.681    455.16338    67735.124   -584.97756 
   47000   -13199.704    229.05293   -12970.651   -12973.403    443.11843    67685.461   -65.135549 
   48000   -13206.927    233.96249   -12972.965   -12959.607    452.61631     67621.04    316.48523 
   49000    -13202.79    234.92855   -12967.862   -12951.563    454.48521    67634.394    386.09838 
   50000   -13202.484    238.51037   -12963.974   -12969.284    461.41448    67684.617    -125.7008 
   51000   -13207.305    234.91324   -12972.392   -12999.042    454.45559    67703.368   -630.65924 
   52000    -13204.26    231.55796   -12972.702   -12988.274    447.96457    67689.839   -368.57854 
   53000   -13202.887    238.07549   -12964.811   -12970.379    460.57317    67682.772   -131.79613 
   54000   -13204.653    229.82208   -12974.831   -12949.293     444.6064    67608.553    605.20915 
   55000   -13203.601    230.76891   -12972.832    -12961.97     446.4381    67642.577     257.2798 
   56000    -13197.91    231.61689   -12966.293   -12972.631    448.07857    67707.647   -149.97272 
   57000   -13201.989    238.57437   -12963.415     -12990.1     461.5383    67725.207   -631.28645 
   58000   -13207.608     233.3634   -12974.244   -12976.322    451.45733    67644.525   -49.205394 
   59000   -13203.339    233.12077   -12970.219   -12941.645    450.98793    67613.337    677.07868 
   60000   -13200.907    236.26223   -12964.645   -12952.444     457.0653    67656.994    288.94356 
Loop time of 2758.85 on 1 procs for 60000 steps with 4000 atoms

Performance: 1.879 ns/day, 12.772 hours/ns, 21.748 timesteps/s
24.9% CPU use with 1 MPI tasks x no OpenMP threads

MPI task timing breakdown:
Section |  min time  |  avg time  |  max time  |%varavg| %total
---------------------------------------------------------------
Pair    | 2697       | 2697       | 2697       |   0.0 | 97.76
Neigh   | 1.0685     | 1.0685     | 1.0685     |   0.0 |  0.04
Comm    | 10.336     | 10.336     | 10.336     |   0.0 |  0.37
Output  | 0.39721    | 0.39721    | 0.39721    |   0.0 |  0.01
Modify  | 42.521     | 42.521     | 42.521     |   0.0 |  1.54
Other   |            | 7.569      |            |       |  0.27

Nlocal:    4000 ave 4000 max 4000 min
Histogram: 1 0 0 0 0 0 0 0 0 0
Nghost:    7880 ave 7880 max 7880 min
Histogram: 1 0 0 0 0 0 0 0 0 0
Neighs:    278586 ave 278586 max 278586 min
Histogram: 1 0 0 0 0 0 0 0 0 0

Total # of neighbors = 278586
Ave neighs/atom = 69.6465
Neighbor list builds = 25
Dangerous builds = 0
All done
Total wall time: 0:45:58
