LAMMPS (17 Nov 2016)
Reading data file ...
  orthogonal box = (-0.0248818 -0.0248818 -0.0248818) to (4.02488 4.02488 4.02488)
  1 by 1 by 1 MPI processor grid
  reading atoms ...
  4 atoms
  reading velocities ...
  4 velocities
Replicating atoms ...
  orthogonal box = (-0.0248818 -0.0248818 -0.0248818) to (40.4728 40.4728 40.4728)
  1 by 1 by 1 MPI processor grid
  4000 atoms
Neighbor list info ...
  1 neighbor list requests
  update every 1 steps, delay 10 steps, check yes
  max neighbors/atom: 2000, page size: 100000
  master list distance cutoff = 8.28721
  ghost atom cutoff = 8.28721
  binsize = 4.1436, bins = 10 10 10
Setting up Verlet run ...
  Unit style    : metal
  Current step  : 0
  Time step     : 0.001
Memory usage per processor = 4.09116 Mbytes
Step PotEng KinEng TotEng Enthalpy Temp Volume Press 
       0   -13439.999    310.14679   -13129.853   -12917.241          600    66418.489    5128.7145 
    1000   -13258.815    188.46558    -13070.35   -13146.308    364.59944    67496.605   -1803.0185 
    2000     -13206.6    228.77503   -12977.825   -13107.731    442.58081    67899.499   -3065.2988 
    3000   -13159.617    281.72615   -12877.891   -12787.073    545.01834    67776.855    2146.8564 
    4000   -13113.104    314.79995   -12798.304   -12762.462    609.00185    68176.003    842.30013 
    5000   -13106.726    314.74176   -12791.984   -12866.646    608.88927     68438.37   -1747.8687 
    6000   -13128.266     300.4458    -12827.82   -12806.769    581.23277    68104.627    495.23487 
    7000   -13119.311    308.68398   -12810.627    -12760.95     597.1701    68117.072    1168.4472 
    8000   -13113.596    320.37882   -12793.217   -12833.651    619.79454    68338.327   -947.96048 
    9000   -13124.997     306.6468    -12818.35   -12828.823    593.22903    68196.587   -246.02583 
   10000   -13119.172    301.75914   -12817.412   -12771.869    583.77352    68108.836     1071.361 
   11000   -13115.614    319.60687   -12796.007   -12816.046    618.30117    68275.029   -470.24624 
   12000   -13122.711    312.40319   -12810.308   -12837.697    604.36515    68248.179   -642.97937 
   13000   -13129.266    309.03549   -12820.231   -12810.386    597.85011    68132.267    231.51462 
   14000   -13121.081     320.3303   -12800.751   -12807.114    619.70068    68224.591    -149.4314 
   15000     -13119.7     314.3572   -12805.343   -12841.791    608.14532    68274.816   -855.31706 
   16000   -13124.534    304.90648   -12819.627   -12804.638    589.86225    68146.405    352.39522 
   17000    -13114.07    308.53328   -12805.537   -12781.677    596.87855     68188.39    560.63137 
   18000   -13116.031    313.90358   -12802.127   -12831.032    607.26777    68271.755   -678.31977 
   19000   -13124.978    307.46901   -12817.509   -12830.008    594.81966    68191.416   -293.67858 
   20000   -13118.016    307.54991   -12810.466   -12780.879    594.97616    68155.171    695.53419 
   21000   -13121.591    321.78195   -12799.809   -12816.864      622.509      68258.9   -400.29494 
   22000   -13119.105    305.05807   -12814.047   -12820.963    590.15553    68232.992   -162.38077 
   23000   -13128.617    313.30427   -12815.312    -12802.36    606.10835    68144.876    304.53975 
   24000   -13117.052    316.03579   -12801.016   -12786.739    611.39266    68196.312    335.42983 
   25000    -13118.55    308.73632   -12809.814   -12852.857    597.27135    68282.903   -1009.9441 
   26000   -13123.567    307.13764   -12816.429   -12820.075     594.1786    68185.768   -85.674754 
   27000   -13114.502    311.17292   -12803.329   -12742.195    601.98511    68111.724    1438.0299 
   28000    -13117.35    310.73564   -12806.615   -12846.047    601.13917    68298.796   -925.02716 
   29000   -13120.422    303.83298   -12816.589   -12871.019     587.7855    68305.329   -1276.7336 
   30000   -13118.234    312.21606   -12806.018    -12726.14    604.00314    68057.727     1880.447 
   31000   -13116.979    313.03768   -12803.941   -12779.793    605.59262    68188.059    567.39226 
   32000   -13123.424    307.75692   -12815.667   -12906.011    595.37663     68365.33   -2117.2455 
   33000   -13121.121    311.82134     -12809.3   -12787.671    603.23953    68152.958    508.45504 
   34000   -13119.407    317.69561   -12801.712   -12744.245    614.60369    68098.685     1352.031 
   35000    -13118.41    305.27435   -12813.136   -12867.176    590.57392    68320.269   -1267.2893 
   36000    -13123.73    311.76727   -12811.963   -12839.688    603.13492    68254.656   -650.80242 
   37000   -13116.783    316.77912   -12800.004    -12739.61    612.83069    68116.819    1420.5369 
   38000   -13121.537    312.62835   -12808.909   -12821.942    604.80075    68213.409    -306.1018 
   39000   -13118.289    306.61142   -12811.678   -12860.344    593.16058    68308.306   -1141.4598 
   40000   -13114.693    315.01231   -12799.681   -12764.134    609.41268    68164.138    835.53252 
   41000   -13123.358    314.51298   -12808.845   -12792.891    608.44668    68162.602    374.99066 
   42000    -13123.81    311.60315   -12812.207   -12865.946    602.81743    68292.643   -1260.7382 
   43000   -13118.111    315.36724   -12802.744   -12794.304    610.09931    68210.851    198.23894 
   44000   -13124.092    313.23157    -12810.86   -12785.261    605.96772    68144.684    601.87389 
   45000   -13117.353    302.08343   -12815.269   -12833.465    584.40087      68250.8   -427.14216 
   46000   -13114.437    310.21766   -12804.219   -12806.787     600.1371     68250.36   -60.283479 
   47000   -13118.709    309.58226   -12809.126   -12764.172    598.90787    68138.729    1057.0225 
   48000   -13125.051    303.42301   -12821.628   -12840.442    586.99239    68202.113    -441.9568 
   49000   -13125.113    307.41141   -12817.701   -12833.168    594.70822    68210.547   -363.28579 
   50000   -13118.625    311.84374   -12806.782   -12773.695    603.28287    68159.094    777.73846 
   51000   -13115.817    307.76403   -12808.052    -12809.72    595.39038    68226.019   -39.165609 
   52000   -13122.637     303.2627   -12819.375   -12838.106    586.68226    68225.958   -439.87905 
   53000   -13118.318    310.99823   -12807.319   -12798.418    601.64716    68187.411    209.14255 
   54000   -13115.491    306.69845   -12808.793   -12775.049    593.32896    68169.354    793.06753 
   55000   -13128.995    309.14283   -12819.852     -12850.4    598.05776    68223.072    -717.3887 
   56000   -13118.227    310.52621     -12807.7   -12811.847    600.73402    68227.473   -97.376243 
   57000   -13117.961    311.97508   -12805.986   -12753.212    603.53696    68128.496    1241.0862 
   58000   -13122.431    305.00366   -12817.427   -12837.165    590.05027    68216.353   -463.56705 
   59000   -13115.175    314.68189   -12800.493   -12856.675    608.77346    68340.322   -1317.1224 
   60000    -13123.57    314.65667   -12808.913   -12756.134    608.72466    68080.097    1242.0861 
Loop time of 696.207 on 1 procs for 60000 steps with 4000 atoms

Performance: 7.446 ns/day, 3.223 hours/ns, 86.181 timesteps/s
99.5% CPU use with 1 MPI tasks x no OpenMP threads

MPI task timing breakdown:
Section |  min time  |  avg time  |  max time  |%varavg| %total
---------------------------------------------------------------
Pair    | 672.73     | 672.73     | 672.73     |   0.0 | 96.63
Neigh   | 8.8204     | 8.8204     | 8.8204     |   0.0 |  1.27
Comm    | 2.7498     | 2.7498     | 2.7498     |   0.0 |  0.39
Output  | 0.10252    | 0.10252    | 0.10252    |   0.0 |  0.01
Modify  | 10.186     | 10.186     | 10.186     |   0.0 |  1.46
Other   |            | 1.621      |            |       |  0.23

Nlocal:    4000 ave 4000 max 4000 min
Histogram: 1 0 0 0 0 0 0 0 0 0
Nghost:    7682 ave 7682 max 7682 min
Histogram: 1 0 0 0 0 0 0 0 0 0
Neighs:    278682 ave 278682 max 278682 min
Histogram: 1 0 0 0 0 0 0 0 0 0

Total # of neighbors = 278682
Ave neighs/atom = 69.6705
Neighbor list builds = 782
Dangerous builds = 0
All done
Total wall time: 0:11:36
