LAMMPS (17 Nov 2016)
Reading data file ...
  orthogonal box = (-0.0248818 -0.0248818 -0.0248818) to (4.02488 4.02488 4.02488)
  1 by 1 by 1 MPI processor grid
  reading atoms ...
  4 atoms
  reading velocities ...
  4 velocities
Replicating atoms ...
  orthogonal box = (-0.0248818 -0.0248818 -0.0248818) to (40.4728 40.4728 40.4728)
  1 by 1 by 1 MPI processor grid
  4000 atoms
Neighbor list info ...
  1 neighbor list requests
  update every 1 steps, delay 10 steps, check yes
  max neighbors/atom: 2000, page size: 100000
  master list distance cutoff = 8.28721
  ghost atom cutoff = 8.28721
  binsize = 4.1436, bins = 10 10 10
Setting up Verlet run ...
  Unit style    : metal
  Current step  : 0
  Time step     : 0.001
Memory usage per processor = 4.09116 Mbytes
Step PotEng KinEng TotEng Enthalpy Temp Volume Press 
       0   -13439.999    284.30123   -13155.698   -12960.317          550    66418.489    4713.0756 
    1000   -13275.146    174.19417   -13100.952   -13125.111    336.99043    67301.613   -575.12267 
    2000   -13226.311    210.37964   -13015.932   -13159.802    406.99369    67807.658   -3399.3903 
    3000   -13181.378    256.53571   -12924.843   -12898.927    496.28573    67751.021    612.86313 
    4000   -13150.805    298.00929   -12852.796   -12786.558    576.51918    67892.628    1563.1207 
    5000   -13142.929    294.77489   -12848.154   -12891.174    570.26202    68140.721   -1011.5286 
    6000   -13155.719    274.79561   -12880.923   -12931.873    531.61075    68058.548   -1199.4198 
    7000   -13150.408    285.95599   -12864.452   -12840.503    553.20126    67961.682    564.57185 
    8000    -13139.92    290.64365   -12849.276   -12829.568    562.26986    68026.748    464.18208 
    9000   -13151.287    279.06983   -12872.217   -12894.307    539.87951    68037.158   -520.18118 
   10000   -13152.518    282.54821   -12869.969   -12886.802    546.60868    68032.594   -396.40003 
   11000   -13142.092     290.5224    -12851.57   -12839.669    562.03529    68033.039    280.26701 
   12000   -13152.935    286.71366   -12866.222   -12860.141    554.66701    67979.231    143.31436 
   13000   -13154.037    280.81736    -12873.22   -12896.303    543.26022    68029.478   -543.64121 
   14000   -13138.797    283.47093   -12855.326    -12858.52    548.39374    68074.369   -75.172182 
   15000   -13147.743    286.20331    -12861.54   -12838.341    553.67971    67985.756    546.71561 
   16000   -13156.954    283.42574   -12873.528   -12876.269    548.30632    67969.449   -64.610428 
   17000   -13140.255    281.16751   -12859.087   -12871.644    543.93761    68091.411   -295.45594 
   18000   -13145.081    287.56887   -12857.513   -12859.528    556.32148    68045.218   -47.464304 
   19000   -13151.445    278.91126   -12872.534   -12843.436    539.57275    67929.178    686.28814 
   20000   -13146.998    283.44182   -12863.556   -12870.281    548.33743    68028.965   -158.37913 
   21000   -13140.846    284.78489   -12856.061    -12881.61    550.93568    68115.064   -600.94493 
   22000   -13154.004    283.81705   -12870.187   -12859.547    549.06333    67972.913    250.79131 
   23000   -13152.878    286.12053   -12866.757   -12832.537    553.51957    67929.872    807.11543 
   24000   -13143.302    287.77364   -12855.528   -12873.249    556.71762    68083.554   -417.01064 
   25000   -13145.953    278.86855   -12867.084   -12902.256    539.49013    68090.437   -827.59692 
   26000   -13151.167    281.60466   -12869.563   -12833.226    544.78331    67930.903    857.00653 
   27000   -13146.159    289.50835   -12856.651   -12809.327    560.07353    67934.448    1116.0829 
   28000   -13147.161    283.33641   -12863.825   -12910.711     548.1335    68125.502   -1102.6704 
   29000   -13154.142    283.33361   -12870.808   -12932.482    548.12808    68104.573   -1450.8862 
   30000   -13145.593    286.19591   -12859.397   -12792.412     553.6654    67896.888    1580.6579 
   31000   -13146.476    286.02345   -12860.452   -12816.621    553.33176    67945.195    1033.5491 
   32000   -13149.078    278.77334   -12870.305   -12937.974    539.30593    68140.864   -1591.0906 
   33000   -13145.076    283.00942   -12862.067   -12883.962    547.50092    68084.334    -515.2267 
   34000   -13146.048    288.55677   -12857.491    -12789.32    558.23264    67898.104    1608.6301 
   35000   -13152.007    283.51641   -12868.491   -12855.543    548.48172    67969.559    305.20704 
   36000   -13148.039     284.2599   -12863.779   -12930.476    549.92006    68154.861   -1567.8996 
   37000   -13140.698    282.36277   -12858.335   -12850.839    546.24992    68042.336    176.51923 
   38000   -13147.364    282.93956   -12864.425   -12802.955    547.36577    67903.227    1450.3894 
   39000   -13144.829    280.82815   -12864.001   -12873.503    543.28109    68039.347   -223.75713 
   40000   -13139.982    285.49001   -12854.492   -12887.359    552.29979    68129.273   -772.92409 
   41000   -13142.507    282.65788   -12859.849   -12842.924    546.82083     68010.34    398.73394 
   42000   -13149.537     283.5172    -12866.02   -12844.371    548.48325    67971.134    510.29693 
   43000   -13144.483    285.44951   -12859.033   -12861.111    552.22144    68047.104    -48.92643 
   44000   -13138.869    280.73913    -12858.13    -12864.16    543.10889    68087.541   -141.88713 
   45000   -13152.344    285.89009   -12866.454   -12864.005    553.07377    67982.274    57.726829 
   46000   -13147.267    287.75337   -12859.514   -12844.481     556.6784    67991.319     354.2339 
   47000   -13144.956    289.91214   -12855.044   -12876.696    560.85469    68094.112   -509.44424 
   48000   -13147.551    278.48562   -12869.065   -12867.017    538.74932    68011.371    48.249612 
   49000   -13140.391     279.7587   -12860.633   -12827.085    541.21217    67990.526    790.54119 
   50000   -13148.962    289.70676   -12859.255   -12857.097    560.45737    68019.595     50.83654 
   51000   -13146.938    282.56069   -12864.378   -12887.001    546.63281    68071.286    -532.4847 
   52000   -13145.264    281.35006   -12863.914    -12859.32    544.29077    68024.065    108.21175 
   53000   -13152.754    290.81789   -12861.936   -12841.415    562.60692    67957.525    483.80882 
   54000   -13144.882    281.58555   -12863.296   -12866.661    544.74634    68036.567    -79.23157 
   55000   -13153.245    282.33396   -12870.911   -12928.237    546.19419    68098.249    -1348.741 
   56000    -13146.21    286.76418   -12859.446    -12846.15    554.76475    68006.919    313.23135 
   57000   -13146.451    286.15388   -12860.297   -12771.124    553.58409      67855.5    2105.5051 
   58000    -13152.84    284.21529   -12868.625   -12920.394    549.83376    68096.349   -1218.0328 
   59000   -13148.268    285.60047   -12862.668   -12957.665    552.51348    68200.968   -2231.6762 
   60000   -13143.975    289.99371   -12853.981   -12796.133    561.01249    67931.415     1364.374 
Loop time of 2801.58 on 1 procs for 60000 steps with 4000 atoms

Performance: 1.850 ns/day, 12.970 hours/ns, 21.416 timesteps/s
25.4% CPU use with 1 MPI tasks x no OpenMP threads

MPI task timing breakdown:
Section |  min time  |  avg time  |  max time  |%varavg| %total
---------------------------------------------------------------
Pair    | 2714.4     | 2714.4     | 2714.4     |   0.0 | 96.89
Neigh   | 26.744     | 26.744     | 26.744     |   0.0 |  0.95
Comm    | 11.306     | 11.306     | 11.306     |   0.0 |  0.40
Output  | 0.43067    | 0.43067    | 0.43067    |   0.0 |  0.02
Modify  | 41.036     | 41.036     | 41.036     |   0.0 |  1.46
Other   |            | 7.652      |            |       |  0.27

Nlocal:    4000 ave 4000 max 4000 min
Histogram: 1 0 0 0 0 0 0 0 0 0
Nghost:    7768 ave 7768 max 7768 min
Histogram: 1 0 0 0 0 0 0 0 0 0
Neighs:    278862 ave 278862 max 278862 min
Histogram: 1 0 0 0 0 0 0 0 0 0

Total # of neighbors = 278862
Ave neighs/atom = 69.7155
Neighbor list builds = 611
Dangerous builds = 0
All done
Total wall time: 0:46:41
