LAMMPS (17 Nov 2016)
Reading data file ...
  orthogonal box = (-0.0248818 -0.0248818 -0.0248818) to (4.02488 4.02488 4.02488)
  1 by 1 by 1 MPI processor grid
  reading atoms ...
  4 atoms
  reading velocities ...
  4 velocities
Replicating atoms ...
  orthogonal box = (-0.0248818 -0.0248818 -0.0248818) to (40.4728 40.4728 40.4728)
  1 by 1 by 1 MPI processor grid
  4000 atoms
Neighbor list info ...
  1 neighbor list requests
  update every 1 steps, delay 10 steps, check yes
  max neighbors/atom: 2000, page size: 100000
  master list distance cutoff = 8.28721
  ghost atom cutoff = 8.28721
  binsize = 4.1436, bins = 10 10 10
Setting up Verlet run ...
  Unit style    : metal
  Current step  : 0
  Time step     : 0.001
Memory usage per processor = 4.09116 Mbytes
Step PotEng KinEng TotEng Enthalpy Temp Volume Press 
       0   -13439.999    129.22783   -13310.772   -13218.773          250    66418.489    2219.2424 
    1000   -13366.486    81.330535   -13285.156   -13177.381    157.33943    66545.096    2594.8463 
    2000   -13346.826    100.07902   -13246.747   -13209.144    193.60965    66772.947    902.26557 
    3000   -13323.938    118.34182   -13205.596   -13212.924    228.94027    66975.159   -175.28893 
    4000   -13307.745    132.43456    -13175.31   -13213.552    256.20364    67116.167   -912.88523 
    5000   -13305.656    128.22416   -13177.432   -13215.305    248.05834    67127.181   -903.94703 
    6000   -13314.406    124.13018   -13190.276   -13228.638    240.13825    67075.332   -916.33661 
    7000    -13310.91    130.94134   -13179.969   -13207.802     253.3149     67081.57   -664.75625 
    8000   -13307.763    130.31578   -13177.447   -13177.999    252.10472     67037.65   -13.209863 
    9000   -13312.967    125.18338   -13187.784   -13168.481    242.17573    66969.699    461.79378 
   10000    -13312.62    130.68351   -13181.937   -13153.676    252.81611    66959.041    676.21457 
   11000   -13308.179    130.76193   -13177.418   -13144.547    252.96781    66976.246    786.30843 
   12000   -13313.735     127.7265   -13186.008   -13162.629    247.09558    66969.877    559.31816 
   13000   -13312.362    128.92855   -13183.433    -13177.36    249.42103      67011.5    145.21847 
   14000   -13309.885    132.23302   -13177.652   -13193.803    255.81374     67066.02   -385.85942 
   15000    -13312.53    127.73958    -13184.79   -13210.799    247.12088    67070.665    -621.3012 
   16000   -13314.075    129.61071   -13184.464   -13213.853     250.7407    67072.068   -702.02481 
   17000   -13308.978    130.75052   -13178.227   -13202.155    252.94574    67081.205   -571.48839 
   18000   -13311.892    128.54267    -13183.35   -13190.785    248.67451    67036.298   -177.69995 
   19000   -13310.469    125.40453   -13185.064   -13168.482    242.60356    66994.869    396.57808 
   20000   -13310.079    131.22702   -13178.852   -13159.654    253.86756    66999.307    459.08924 
   21000   -13310.318    127.94043   -13182.378   -13158.169    247.50944    66983.208    579.05471 
   22000   -13314.686    129.21885   -13185.467   -13166.571    249.98264     66976.41    452.02218 
   23000   -13310.631    130.99028    -13179.64   -13171.085    253.40957    67011.602    204.54214 
   24000   -13310.978    129.64943   -13181.329   -13188.148    250.81562    67037.718   -162.97935 
   25000   -13313.638    128.18156   -13185.456   -13206.159    247.97593    67052.755   -494.66739 
   26000       -13312    131.42021   -13180.579   -13207.449     254.2413    67083.329   -641.73047 
   27000   -13308.675    128.12766   -13180.547   -13204.316    247.87165    67084.599   -567.67942 
   28000   -13313.176    127.92441   -13185.251   -13204.454    247.47844    67055.513   -458.81865 
   29000   -13310.241    128.70043    -13181.54   -13181.966     248.9797    67032.395   -10.181512 
   30000   -13309.603    129.72131   -13179.882   -13156.909    250.95467    66985.521    549.47281 
   31000   -13312.025    127.39092   -13184.634   -13139.275    246.44637    66928.762    1085.8211 
   32000   -13311.292    128.98145   -13182.311    -13126.92    249.52336    66915.345    1326.2274 
   33000   -13310.858    131.17842    -13179.68   -13133.523    253.77355    66940.187    1104.7241 
   34000   -13314.783    130.37153   -13184.412   -13174.243    252.21257    66993.509     243.1876 
   35000    -13311.93     129.3717   -13182.559   -13216.533    250.27833    67088.381   -811.36171 
   36000   -13311.646    131.82986   -13179.816   -13244.055    255.03381    67152.861   -1532.6421 
   37000   -13310.801    128.48367   -13182.318   -13248.061    248.56038    67149.026   -1568.6412 
   38000   -13313.857    131.37741   -13182.479   -13226.176    254.15852    67108.651    -1043.224 
   39000    -13310.43    130.38997    -13180.04    -13192.12    252.24824    67056.786   -288.62082 
   40000   -13312.344    130.73777   -13181.606   -13169.144    252.92108    66999.901    298.00701 
   41000   -13312.734    128.19019   -13184.543   -13156.881    247.99261    66962.673      661.856 
   42000   -13312.587    131.24878   -13181.338   -13148.749    253.90966    66959.118    779.78151 
   43000   -13311.771    129.83219   -13181.938    -13156.59    251.16918    66973.689    606.39883 
   44000   -13311.598    127.12371   -13184.474   -13172.566    245.92944    67000.913    284.75708 
   45000   -13313.298    129.40397   -13183.894     -13196.6    250.34075     67040.44   -303.64776 
   46000   -13310.267    130.23436   -13180.032   -13206.825     251.9472    67078.572   -639.93703 
   47000   -13312.411     127.2474   -13185.163   -13217.104    246.16873    67076.948    -762.9334 
   48000   -13310.896    128.11191   -13182.784   -13207.371    247.84117    67068.983   -587.34926 
   49000     -13310.8    131.09655   -13179.703   -13189.608    253.61517    67051.489   -236.67342 
   50000   -13313.795    129.16546   -13184.629   -13182.144    249.87934    67006.692    59.424222 
   51000   -13310.308    130.36203   -13179.946   -13158.529    252.19418    66992.395    512.19836 
   52000   -13312.908    132.61391   -13180.295   -13153.366     256.5506    66974.072    644.19749 
   53000   -13311.859    128.33856    -13183.52   -13161.707    248.27964    66979.513    521.77492 
   54000   -13309.168    129.45642   -13179.712   -13175.417    250.44223    67021.383    102.67485 
   55000   -13310.968    132.38751   -13178.581   -13187.904    256.11261    67056.218   -222.75213 
   56000     -13314.2    131.04345   -13183.156   -13212.013    253.51245    67077.268    -689.2605 
--------------------------------------------------------------------------
mpirun noticed that process rank 0 with PID 0 on node i0n22.ib.cluste exited on signal 9 (Killed).
--------------------------------------------------------------------------
