LAMMPS (17 Nov 2016)
Reading data file ...
  orthogonal box = (-0.0248818 -0.0248818 -0.0248818) to (4.02488 4.02488 4.02488)
  1 by 1 by 1 MPI processor grid
  reading atoms ...
  4 atoms
  reading velocities ...
  4 velocities
Replicating atoms ...
  orthogonal box = (-0.0248818 -0.0248818 -0.0248818) to (40.4728 40.4728 40.4728)
  1 by 1 by 1 MPI processor grid
  4000 atoms
Neighbor list info ...
  1 neighbor list requests
  update every 1 steps, delay 10 steps, check yes
  max neighbors/atom: 2000, page size: 100000
  master list distance cutoff = 8.28721
  ghost atom cutoff = 8.28721
  binsize = 4.1436, bins = 10 10 10
Setting up Verlet run ...
  Unit style    : metal
  Current step  : 0
  Time step     : 0.001
Memory usage per processor = 4.09116 Mbytes
Step PotEng KinEng TotEng Enthalpy Temp Volume Press 
       0   -13439.999    180.91896    -13259.08   -13132.621          350    66418.489    3050.5202 
    1000   -13336.765    113.42779   -13223.338   -13072.412    219.43375    66617.177     3629.832 
    2000   -13307.358      137.768    -13169.59    -13102.99    266.52153    66925.796    1594.3812 
    3000   -13275.353    163.54879   -13111.805   -13094.554    316.39622    67191.728     411.3354 
    4000   -13257.585    189.03882   -13068.546   -13097.124    365.70842    67396.325   -679.35296 
    5000   -13255.151    184.96809   -13070.183     -13113.2    357.83331    67430.652   -1022.1018 
    6000   -13262.803    173.80529   -13088.998   -13140.285    336.23812    67397.343   -1219.2034 
    7000    -13257.17    181.77527   -13075.394   -13121.609    351.65659    67435.049   -1098.0002 
    8000   -13252.093    181.83341    -13070.26   -13102.581    351.76906    67425.959    -768.0315 
    9000   -13265.305    180.46736   -13084.838   -13111.055    349.12634    67352.398   -623.65968 
   10000   -13259.386    180.76629    -13078.62   -13086.763    349.70464    67337.515   -193.75324 
   11000   -13251.421    180.83946   -13070.582   -13057.896    349.84621    67341.062    301.81118 
   12000   -13262.298    180.16336   -13082.134   -13070.476    348.53824    67285.148    277.60781 
   13000   -13257.661    177.18622   -13080.474   -13052.173    342.77877    67274.586    674.02051 
   14000   -13256.016    184.90971   -13071.107    -13050.26    357.72038    67306.939    496.22776 
   15000   -13257.251    177.39505   -13079.856   -13057.357    343.18276    67279.371    535.79027 
   16000   -13259.042    177.13536   -13081.907   -13065.223    342.68036    67281.646    397.28151 
   17000   -13254.764    182.27878   -13072.485   -13064.042    352.63066    67327.117     200.9182 
   18000   -13258.846    180.90332   -13077.943   -13073.988    349.96974    67317.293    94.140326 
   19000   -13260.803    178.32136   -13082.482   -13084.778    344.97477    67318.876   -54.648704 
   20000   -13257.389    183.73143   -13073.658   -13088.496    355.44091    67364.874    -352.8912 
   21000   -13259.634    183.58814   -13076.046   -13096.548    355.16371    67362.682    -487.6126 
   22000   -13262.612    180.05305   -13082.559   -13100.177    348.32483     67350.77   -419.10848 
   23000   -13257.975    182.35956   -13075.615    -13099.79    352.78693    67379.089   -574.84803 
   24000   -13257.914    183.41702   -13074.497   -13093.768    354.83266    67381.729     -458.216 
   25000   -13260.362    178.21553   -13082.146   -13097.538    344.77004    67345.092   -366.18597 
   26000   -13257.874    180.49486    -13077.38   -13078.555    349.17955    67338.512   -27.979902 
   27000   -13255.289    181.66081   -13073.629   -13055.181    351.43516    67303.178    439.15763 
   28000   -13263.141     182.1324   -13081.009    -13047.29    352.34748    67239.599    803.43919 
   29000   -13261.142    182.50105   -13078.641    -13035.37    353.06066    67220.447    1031.3615 
   30000   -13256.189    183.22191   -13072.968    -13022.26    354.45521    67243.643     1208.176 
   31000   -13257.629    177.95174   -13079.678   -13027.641    344.25971     67237.39    1239.9656 
   32000   -13261.123    181.02022   -13080.103   -13059.847     350.1959    67279.882    482.35267 
   33000   -13255.806    182.13724   -13073.668   -13080.933    352.35685    67353.678   -172.79615 
   34000   -13259.567    181.06691     -13078.5   -13112.941    350.28622    67392.343   -818.79539 
   35000   -13258.131    177.31592   -13080.815   -13130.795    343.02967    67425.385   -1187.6359 
   36000   -13255.866    182.05262   -13073.813   -13139.586    352.19315    67470.886   -1561.8647 
   37000   -13252.161    174.45558   -13077.705   -13125.711    337.49615     67444.26   -1140.3952 
   38000   -13259.778    181.70667   -13078.071   -13119.224    351.52388    67403.507   -978.19296 
   39000   -13258.359    182.84339   -13075.516   -13091.658    353.72294    67370.696   -383.88272 
   40000   -13256.579    182.28251   -13074.297   -13069.006    352.63788    67329.552    125.90491 
   41000   -13262.433    181.16309    -13081.27   -13055.495    350.47229    67264.161     613.9395 
   42000   -13258.749    184.50246   -13074.247   -13047.298    356.93251    67273.563    641.80356 
   43000   -13257.244     182.9065   -13074.338   -13047.509    353.84503    67278.852     638.8837 
   44000   -13260.182     179.9097   -13080.273   -13056.053    348.04752    67266.673    576.86178 
   45000   -13257.547    182.38265   -13075.164   -13057.157    352.83161    67304.127    428.66843 
   46000    -13257.61    182.73194   -13074.878   -13070.934    353.50732    67326.248    93.844833 
   47000   -13259.421    179.96696   -13079.454   -13085.907    348.15828     67339.41   -153.52311 
   48000   -13259.205    182.04883   -13077.156    -13090.15    352.18582    67350.537   -309.09822 
   49000   -13252.632      183.939   -13068.693   -13085.122    355.84247     67390.42   -390.60167 
   50000   -13259.612    183.07144   -13076.541   -13089.793    354.16411    67359.587   -315.20739 
   51000   -13258.804    179.40994   -13079.394   -13090.974    347.08069    67353.089   -275.45186 
   52000   -13260.619    184.64937   -13075.969   -13082.862    357.21673    67344.572   -163.97434 
   53000   -13257.901    184.21591   -13073.685   -13070.925    356.37818    67334.666    65.674678 
   54000   -13258.115    177.68434   -13080.431   -13060.963    343.74241    67286.338    463.55843 
   55000   -13256.309    181.00791   -13075.301    -13044.23    350.17207    67277.724    739.95636 
   56000   -13256.798    184.45328   -13072.345   -13042.689    356.83738    67287.261    706.13787 
   57000   -13260.373     179.9428    -13080.43    -13051.04    348.11154    67255.945    700.13966 
   58000   -13257.242    180.10405   -13077.138   -13048.698    348.42349    67280.885    677.26327 
   59000   -13260.074    186.25445    -13073.82   -13070.529    360.32186     67314.53    78.322005 
   60000   -13256.807    179.14742    -13077.66   -13081.329    346.57283    67343.135   -87.301789 
Loop time of 1390.9 on 1 procs for 60000 steps with 4000 atoms

Performance: 3.727 ns/day, 6.439 hours/ns, 43.138 timesteps/s
49.9% CPU use with 1 MPI tasks x no OpenMP threads

MPI task timing breakdown:
Section |  min time  |  avg time  |  max time  |%varavg| %total
---------------------------------------------------------------
Pair    | 1358.5     | 1358.5     | 1358.5     |   0.0 | 97.67
Neigh   | 0          | 0          | 0          |   0.0 |  0.00
Comm    | 5.5893     | 5.5893     | 5.5893     |   0.0 |  0.40
Output  | 0.20875    | 0.20875    | 0.20875    |   0.0 |  0.02
Modify  | 21.718     | 21.718     | 21.718     |   0.0 |  1.56
Other   |            | 4.892      |            |       |  0.35

Nlocal:    4000 ave 4000 max 4000 min
Histogram: 1 0 0 0 0 0 0 0 0 0
Nghost:    8195 ave 8195 max 8195 min
Histogram: 1 0 0 0 0 0 0 0 0 0
Neighs:    280000 ave 280000 max 280000 min
Histogram: 1 0 0 0 0 0 0 0 0 0

Total # of neighbors = 280000
Ave neighs/atom = 70
Neighbor list builds = 0
Dangerous builds = 0
All done
Total wall time: 0:23:10
