LAMMPS (17 Nov 2016)
Reading data file ...
  orthogonal box = (-0.0248818 -0.0248818 -0.0248818) to (4.02488 4.02488 4.02488)
  1 by 1 by 1 MPI processor grid
  reading atoms ...
  4 atoms
  reading velocities ...
  4 velocities
Replicating atoms ...
  orthogonal box = (-0.0248818 -0.0248818 -0.0248818) to (40.4728 40.4728 40.4728)
  1 by 1 by 1 MPI processor grid
  4000 atoms
Neighbor list info ...
  1 neighbor list requests
  update every 1 steps, delay 10 steps, check yes
  max neighbors/atom: 2000, page size: 100000
  master list distance cutoff = 8.28721
  ghost atom cutoff = 8.28721
  binsize = 4.1436, bins = 10 10 10
Setting up Verlet run ...
  Unit style    : metal
  Current step  : 0
  Time step     : 0.001
Memory usage per processor = 4.09116 Mbytes
Step PotEng KinEng TotEng Enthalpy Temp Volume Press 
       0   -13439.999    258.45566   -13181.544   -13003.393          500    66418.489    4297.4368 
    1000   -13291.099    159.56169   -13131.537   -13102.021     308.6829    67106.627    704.69008 
    2000   -13246.269    192.04771   -13054.221   -13185.901    371.52931    67664.393   -3117.9501 
    3000   -13204.365    232.80031   -12971.564   -13020.136    450.36799    67749.164   -1148.6534 
    4000    -13175.89    268.47458   -12907.416   -12842.758    519.38228    67732.951    1529.4396 
    5000   -13171.857    268.02848   -12903.828   -12867.287    518.51926     67800.59     863.5038 
    6000   -13186.969    253.66281   -12933.306   -12977.766    490.72791    67851.132   -1049.8398 
    7000   -13176.767    258.16207   -12918.604    -12964.15    499.43203    67921.681   -1074.3566 
    8000   -13171.692    266.65083   -12905.041   -12897.176    515.85411    67856.275    185.69693 
    9000   -13182.753    256.71035   -12926.043   -12889.829    496.62357     67737.83     856.5488 
   10000   -13179.798    256.39886   -12923.399   -12931.818    496.02098    67824.675   -198.87076 
   11000   -13166.918    259.69904   -12907.219   -12929.657     502.4054    67930.151   -529.21701 
   12000   -13177.441    256.66498   -12920.776   -12920.048     496.5358     67828.66    17.195681 
   13000   -13181.963    256.34991   -12925.613   -12904.425    495.92628    67754.076    501.03045 
   14000    -13176.82    266.79272   -12910.027   -12904.658    516.12861    67832.565    126.81122 
   15000   -13177.666    261.24093   -12916.425   -12928.629     505.3883    67861.172   -288.12459 
   16000   -13176.818    250.46236   -12926.355   -12933.331    484.53642    67832.065   -164.76898 
   17000   -13175.877    262.61007   -12913.267   -12913.629    508.03698    67842.471   -8.5565022 
   18000   -13175.077    261.42557   -12913.652   -12909.021    505.74549    67830.134    109.38438 
   19000    -13179.48    254.25753   -12925.222   -12924.181    491.87843    67813.437    24.588823 
   20000   -13175.752    259.01343   -12916.738   -12932.603    501.07905    67868.794   -374.51099 
   21000   -13171.642     259.6962   -12911.946   -12905.894    502.39991    67856.549    142.88755 
   22000   -13181.786    257.98031   -12923.806   -12905.123     499.0804    67775.677      441.643 
   23000   -13178.489    259.07135   -12919.418   -12918.372     501.1911    67827.771    24.707262 
   24000   -13172.343    261.04396   -12911.299   -12932.827    505.00725     67902.54   -507.97595 
   25000   -13181.646    259.94146   -12921.704   -12930.156    502.87439    67830.114   -199.62475 
   26000   -13176.546    255.03069   -12921.515   -12897.801    493.37417    67782.298    560.52767 
   27000   -13176.242    264.66311   -12911.579   -12904.287    512.00874    67827.493    172.25809 
   28000   -13172.923    254.44623   -12918.477   -12922.616    492.24349    67862.892   -97.725489 
   29000   -13177.763    254.49951   -12923.263   -12942.974    492.34656    67877.345    -465.2396 
   30000   -13172.764     259.7329   -12913.031   -12897.817     502.4709    67817.653    359.42239 
   31000   -13174.341    258.71605   -12915.625   -12870.063    500.50374    67748.687    1077.4737 
   32000   -13177.483    254.08876   -12923.394   -12925.385    491.55194    67830.535   -47.010799 
   33000   -13177.369    262.00512   -12915.364   -12985.664    506.86667    67976.707   -1656.9327 
   34000    -13175.28    261.02455   -12914.255   -12927.896    504.96969    67867.653   -322.01192 
   35000   -13181.025    258.38959   -12922.635   -12849.589    499.87219    67656.528    1729.8219 
   36000   -13178.474    262.90905   -12915.565   -12885.747    508.61539     67768.84    704.94183 
   37000   -13177.595    262.98046   -12914.615   -12996.016    508.75354    67989.186    -1918.235 
   38000   -13178.168    253.71191   -12924.456   -12980.369    490.82289    67936.156   -1318.6231 
   39000   -13184.964    249.05529   -12935.909   -12872.095    481.81434    67661.698    1511.0659 
   40000   -13180.862    260.43483   -12920.427   -12866.535    503.82885    67720.776    1275.0036 
   41000   -13172.927    260.06522   -12912.862   -12954.378     503.1138    67939.432   -979.06034 
   42000   -13180.931    260.09941   -12920.832   -12980.731    503.17995    67932.455   -1412.7228 
   43000    -13176.34    255.35029    -12920.99   -12899.184    493.99245    67784.423    515.41005 
   44000   -13168.347    260.94751   -12907.399   -12856.824    504.82066    67786.546    1195.3691 
   45000   -13176.157    260.77389   -12915.383   -12917.782    504.48477    67848.712   -56.656058 
   46000   -13177.841      253.981    -12923.86   -12959.266    491.34347    67894.353   -835.52527 
   47000   -13173.832    259.46458   -12914.367   -12917.184    501.95183    67852.969   -66.502462 
   48000   -13180.392    262.63663   -12917.756   -12894.742    508.08836    67767.995    544.09456 
   49000    -13175.98     252.4375   -12923.543    -12896.79    488.35746    67781.539    632.36872 
   50000   -13176.809    261.60872     -12915.2   -12940.171     506.0998    67880.047   -589.39687 
   51000    -13178.61    261.66942   -12916.941   -12944.218    506.21723     67868.78   -643.92706 
   52000   -13178.043    259.76535   -12918.278   -12907.134    502.53368    67805.453    263.31588 
   53000   -13177.008    260.32843    -12916.68   -12887.604    503.62301    67780.217    687.28998 
   54000   -13176.282    263.91151    -12912.37   -12942.036    510.55472    67887.625   -700.11952 
   55000   -13177.937    254.70803   -12923.229   -12952.294    492.74995    67874.993   -686.07712 
   56000   -13175.466    257.48192   -12917.984   -12922.951    498.11623    67846.226   -117.30853 
   57000   -13174.885    262.66775   -12912.217   -12882.567    508.14858    67789.295    700.76781 
   58000   -13180.479    254.95595   -12925.523   -12905.266    493.22957    67772.287    478.91005 
   59000   -13176.558    261.22655   -12915.332   -12941.642    505.36048    67898.167   -620.84376 
   60000   -13176.688    260.49825    -12916.19   -12940.645    503.95152    67885.377     -577.154 
Loop time of 2787.64 on 1 procs for 60000 steps with 4000 atoms

Performance: 1.860 ns/day, 12.906 hours/ns, 21.524 timesteps/s
25.1% CPU use with 1 MPI tasks x no OpenMP threads

MPI task timing breakdown:
Section |  min time  |  avg time  |  max time  |%varavg| %total
---------------------------------------------------------------
Pair    | 2718.4     | 2718.4     | 2718.4     |   0.0 | 97.52
Neigh   | 7.9798     | 7.9798     | 7.9798     |   0.0 |  0.29
Comm    | 10.85      | 10.85      | 10.85      |   0.0 |  0.39
Output  | 0.42185    | 0.42185    | 0.42185    |   0.0 |  0.02
Modify  | 42.684     | 42.684     | 42.684     |   0.0 |  1.53
Other   |            | 7.274      |            |       |  0.26

Nlocal:    4000 ave 4000 max 4000 min
Histogram: 1 0 0 0 0 0 0 0 0 0
Nghost:    7741 ave 7741 max 7741 min
Histogram: 1 0 0 0 0 0 0 0 0 0
Neighs:    278639 ave 278639 max 278639 min
Histogram: 1 0 0 0 0 0 0 0 0 0

Total # of neighbors = 278639
Ave neighs/atom = 69.6598
Neighbor list builds = 178
Dangerous builds = 0
All done
Total wall time: 0:46:27
