LAMMPS (17 Nov 2016)
Lattice spacing in x,y,z = 1.82574 1.82574 1.82574
Created orthogonal box = (0 0 -0.182574) to (73.0297 73.0297 0.182574)
  5 by 1 by 1 MPI processor grid
Created 3200 atoms
Neighbor list info ...
  1 neighbor list requests
  update every 1 steps, delay 0 steps, check yes
  max neighbors/atom: 2000, page size: 100000
  master list distance cutoff = 2.8
  ghost atom cutoff = 2.8
  binsize = 1.4, bins = 53 53 1
Setting up Verlet run ...
  Unit style    : lj
  Current step  : 0
  Time step     : 0.005
Memory usage per processor = 2.47943 Mbytes
Step Temp E_pair E_mol TotEng Press 
       0            1     -1.56492            0   -0.5652325   -1.5346995 
    1000   0.97486224   -1.5736244            0  -0.59906685   0.97401858 
    2000   0.97718633   -1.5871699            0  -0.61028891   0.95402503 
    3000    1.0150086    -1.575617            0  -0.56092557    1.0254908 
    4000    1.0231666   -1.5771003            0  -0.55425344    1.0491885 
    5000   0.98269962   -1.5916993            0  -0.60930674   0.94598308 
Loop time of 1.67737 on 5 procs for 5000 steps with 3200 atoms

Performance: 1287732.521 tau/day, 2980.862 timesteps/s
99.6% CPU use with 5 MPI tasks x no OpenMP threads

MPI task timing breakdown:
Section |  min time  |  avg time  |  max time  |%varavg| %total
---------------------------------------------------------------
Pair    | 0.74251    | 0.75202    | 0.76314    |   0.9 | 44.83
Neigh   | 0.21572    | 0.21996    | 0.22486    |   0.8 | 13.11
Comm    | 0.16243    | 0.18501    | 0.19939    |   3.4 | 11.03
Output  | 0.00023818 | 0.00026255 | 0.00030017 |   0.1 |  0.02
Modify  | 0.40889    | 0.41274    | 0.41913    |   0.5 | 24.61
Other   |            | 0.1074     |            |       |  6.40

Nlocal:    640 ave 649 max 631 min
Histogram: 1 0 1 0 0 1 1 0 0 1
Nghost:    310.8 ave 323 max 292 min
Histogram: 1 0 0 0 0 1 0 1 1 1
Neighs:    4490.8 ave 4565 max 4372 min
Histogram: 1 0 0 0 1 0 1 0 0 2

Total # of neighbors = 22454
Ave neighs/atom = 7.01687
Neighbor list builds = 597
Dangerous builds = 0
Setting up Verlet run ...
  Unit style    : lj
  Current step  : 0
  Time step     : 0.005
Memory usage per processor = 2.85443 Mbytes
Step Temp c_msd[4] v_twopoint v_fitslope 
       0   0.98269962            0            0        5e+20 
    1000   0.99092138    4.2120788    0.2106039   0.18827127 
    2000   0.99848621    9.2692411     0.231731   0.21412187 
    3000   0.97309198     15.01312   0.25021865   0.22934153 
    4000   0.97783061    20.490484   0.25613104   0.23900488 
    5000   0.98231453    27.404444   0.27404443   0.24866161 
    6000   0.98161017    35.028226   0.29190188   0.25906533 
    7000   0.99136927    42.364378   0.30260269   0.26953956 
    8000   0.98359697     50.28321   0.31427005   0.27860213 
    9000   0.99272715    57.960504   0.32200279   0.28697758 
   10000   0.98592317    65.267139   0.32633569    0.2939402 
   11000    1.0000627    72.954049   0.33160931   0.30002799 
   12000   0.98161267    81.139703   0.33808209    0.3056663 
   13000   0.99027593    89.260561   0.34330984   0.31086234 
   14000   0.99228612    96.778518   0.34563756   0.31551267 
   15000   0.96927621    105.79807   0.35266022   0.31989335 
   16000    0.9802929    114.58159   0.35806747   0.32420601 
   17000   0.98159313    121.88175   0.35847573   0.32800515 
   18000   0.99070671    129.54519   0.35984776   0.33134088 
   19000    0.9684051    136.41791    0.3589945   0.33418802 
   20000   0.98746114    142.56676    0.3564169    0.3365253 
   21000    0.9947463      150.602   0.35857618   0.33843039 
   22000   0.98065846    158.73842   0.36076913   0.34028595 
   23000     0.978113    166.56582   0.36209961   0.34206192 
   24000   0.97483934    174.38697   0.36330619   0.34372296 
   25000   0.99822468    183.00571   0.36601142   0.34531892 
   26000   0.98985523    191.86363   0.36896852   0.34699681 
   27000    1.0040799    201.22313   0.37263542   0.34874118 
   28000   0.99895473    210.16125   0.37528794   0.35053738 
   29000   0.99348899    217.93247   0.37574563   0.35223092 
   30000    0.9716263    224.70962   0.37451603   0.35367848 
   31000    1.0050045    232.11583   0.37438037   0.35498317 
   32000    0.9833404    239.04688   0.37351076   0.35619051 
   33000   0.97747849    243.48798   0.36892118   0.35708234 
   34000   0.99784913    249.47278   0.36687173   0.35766768 
   35000   0.98006853    255.79564   0.36542234   0.35814568 
   36000   0.99283964    262.04934   0.36395741   0.35850483 
   37000   0.98373746    269.07073   0.36360909   0.35878153 
   38000   0.98564481     275.9553   0.36309907   0.35900375 
   39000   0.98820959    281.51046   0.36091084   0.35914365 
   40000   0.97590876    285.98936   0.35748669   0.35912975 
   41000   0.98474548     291.3282   0.35527829   0.35899403 
   42000   0.99212242    296.40288   0.35286057   0.35875937 
   43000   0.97480526    301.89333   0.35103876    0.3584602 
   44000   0.99159545    307.54442    0.3494823   0.35808244 
   45000   0.99106261    314.06229    0.3489581   0.35767242 
   46000   0.99522981    319.58884   0.34737917   0.35725614 
   47000   0.98107071    326.32777   0.34715721   0.35684309 
   48000    0.9756543    332.60035   0.34645869   0.35643635 
   49000   0.99038032    339.59031   0.34652072   0.35602318 
   50000    1.0033936    347.28803   0.34728803   0.35565709 
   51000   0.98092409     352.1852   0.34527961   0.35530903 
   52000   0.99635181    357.83637   0.34407344   0.35491001 
   53000    0.9838702    362.13255   0.34163448   0.35446921 
   54000   0.98318069    366.89329   0.33971601   0.35395622 
   55000   0.99544831    371.90303   0.33809366   0.35342196 
   56000   0.98828932    377.31028   0.33688418   0.35284619 
   57000   0.98477212    382.49678   0.33552349   0.35226949 
   58000    0.9874469     390.9441   0.33702078   0.35171889 
   59000   0.99641203     399.0252   0.33815695   0.35125172 
   60000   0.97280404    406.17687   0.33848072   0.35083474 
   61000   0.98589545    415.39138   0.34048474   0.35046788 
   62000   0.98442872    423.54733   0.34157043   0.35016757 
   63000   0.98965017    431.16852   0.34219724   0.34992088 
   64000   0.97250211    440.43165   0.34408722   0.34970613 
   65000    1.0025167    447.05761   0.34389047   0.34953609 
   66000   0.98757103    455.44339   0.34503287   0.34937768 
   67000   0.99008962     464.2209    0.3464335   0.34926409 
   68000   0.97900853    473.37706   0.34807137   0.34920363 
   69000   0.98005821     482.6319   0.34973326   0.34920642 
   70000   0.97799361     489.2442   0.34946014   0.34921966 
   71000   0.97812739    496.94562    0.3499617   0.34923113 
   72000   0.98070265    504.34583   0.35024016   0.34924952 
   73000   0.98164828    511.50517     0.350346   0.34928439 
   74000    0.9915932    517.85464   0.34990178   0.34931093 
   75000   0.98564698     523.7328    0.3491552   0.34930928 
   76000   0.97584943    529.82998   0.34857235   0.34930391 
   77000   0.99081829    535.46999   0.34770779   0.34927258 
   78000   0.98533986    543.39893   0.34833265   0.34924703 
   79000   0.96884258    552.12888   0.34944866   0.34923639 
   80000   0.96918063    560.09716   0.35006072   0.34925803 
   81000   0.98743098    567.37611   0.35023217   0.34927766 
   82000     0.995994    575.92137   0.35117157   0.34931162 
   83000   0.97895876     584.4848   0.35209928   0.34936212 
   84000   0.98493529    594.25125   0.35372098   0.34944723 
   85000   0.98614581    603.24439   0.35484964   0.34955843 
   86000   0.99340776    611.40924   0.35547049   0.34968899 
   87000   0.99450802    620.80212   0.35678283   0.34983204 
   88000   0.99419977     627.3816   0.35646682   0.34999184 
   89000   0.98854684    634.52879   0.35647685   0.35013619 
   90000   0.97206854    640.86196   0.35603442   0.35027248 
   91000   0.98409221    648.44128   0.35628642   0.35039771 
   92000   0.99246288    654.26268   0.35557754   0.35051786 
   93000   0.98624363    663.42769   0.35668155   0.35063935 
   94000   0.98900408    670.59809   0.35670111   0.35077038 
   95000   0.99223972    679.05131   0.35739543   0.35089982 
   96000   0.98042633     684.6397   0.35658317   0.35103231 
   97000   0.98582505    691.11888   0.35624685   0.35113932 
   98000   0.99023095    700.48351   0.35738954   0.35125546 
   99000    1.0024172    706.92649   0.35703358   0.35137184 
  100000   0.97848474    715.40404   0.35770202   0.35149102 
Loop time of 27.3505 on 5 procs for 100000 steps with 3200 atoms

Performance: 1579498.541 tau/day, 3656.247 timesteps/s
99.8% CPU use with 5 MPI tasks x no OpenMP threads

MPI task timing breakdown:
Section |  min time  |  avg time  |  max time  |%varavg| %total
---------------------------------------------------------------
Pair    | 14.753     | 14.884     | 14.979     |   2.3 | 54.42
Neigh   | 4.6422     | 4.6906     | 4.7477     |   2.0 | 17.15
Comm    | 3.5687     | 3.8193     | 4.0464     |   8.0 | 13.96
Output  | 0.013474   | 0.014014   | 0.014599   |   0.4 |  0.05
Modify  | 2.2158     | 2.2299     | 2.2399     |   0.5 |  8.15
Other   |            | 1.712      |            |       |  6.26

Nlocal:    640 ave 654 max 627 min
Histogram: 1 0 0 1 1 1 0 0 0 1
Nghost:    312.6 ave 321 max 302 min
Histogram: 1 1 0 0 0 0 0 1 0 2
Neighs:    4489.2 ave 4670 max 4347 min
Histogram: 1 1 0 0 1 0 1 0 0 1

Total # of neighbors = 22446
Ave neighs/atom = 7.01438
Neighbor list builds = 12769
Dangerous builds = 0
Total wall time: 0:00:29
