# LAMMPS data file written by OVITO
4000 atoms
1 atom types
-0.09995 40.5478211 xlo xhi
-0.09995 40.5478211 ylo yhi
-0.09995 40.5478211 zlo zhi

Atoms # atomic

3 1 1.8555412 0.0340429 1.8496392
402 1 1.8993798 1.8930794 4.0969729
43 1 1.9033146 4.0296602 1.9995602
8 1 4.0460415 2.0961838 1.8501714
445 1 3.9711678 4.0116534 4.106566
406 1 6.0183525 1.8841044 4.093884
47 1 6.0630651 4.0920138 1.9452386
12 1 8.082365 1.9373366 2.0132136
409 1 8.0118008 -0.1003243 4.0252295
49 1 7.929204 4.1634727 -0.144126
449 1 7.9936304 3.8757192 3.8617524
10 1 10.0606108 2.1445792 -0.2121163
410 1 10.097682 1.7259885 3.8323925
51 1 9.9063932 3.9006402 1.9356742
13 1 11.9683324 -0.0164692 -0.2083259
16 1 12.1064129 1.8838564 1.8587726
413 1 12.2407532 -0.1067095 3.9014772
53 1 12.2170563 3.9636118 0.1319691
453 1 12.0050783 3.8380304 3.8719876
42 1 1.7502593 5.8857594 -0.1409514
442 1 1.8964572 5.9446178 4.0162463
81 1 -0.1405986 8.0576515 -0.1708316
83 1 1.7446581 8.034441 1.7482107
481 1 -0.1936346 8.1051683 3.9783624
48 1 3.9037088 5.9931512 2.0075514
485 1 3.7844768 8.1029329 3.9508646
446 1 5.9333988 6.0393672 3.9610956
87 1 5.8568998 8.0639114 1.8368635
52 1 8.0351324 6.0041256 2.0007591
89 1 8.3065786 7.984851 -0.0312447
489 1 7.946764 7.967332 3.861858
50 1 10.2309656 6.0482283 0.0067394
450 1 9.9335052 5.90836 3.9456576
91 1 10.2201128 7.9171324 1.9637576
56 1 12.2016506 5.9780298 1.9779722
93 1 12.0628376 8.1329718 -0.0996271
493 1 11.9700404 8.123826 4.2039986
482 1 1.874674 10.2708817 3.9321908
123 1 2.0024014 12.1611252 2.028115
521 1 -0.2144735 11.9290668 4.1175003
88 1 4.0368552 10.1458492 1.9104766
125 1 3.9875896 12.1086893 0.0043896
525 1 3.8328476 12.0687723 4.0288882
86 1 5.979981 10.0997953 -0.1293155
486 1 5.9695344 10.064146 4.0249047
127 1 6.1360273 12.1375895 1.9015828
92 1 7.9959078 10.0739431 1.8983432
529 1 8.0773249 12.0005245 4.0645361
90 1 10.030653 10.0854864 -0.1989001
490 1 10.1291018 9.9439926 3.9881184
131 1 10.0731707 11.8956958 1.9931012
96 1 11.9767466 10.0428076 2.0071449
133 1 11.9431716 12.1550675 -0.126327
533 1 12.0415392 12.1460438 3.8614678
122 1 2.0833311 14.1997728 -0.1783096
522 1 1.8164339 14.1121769 3.9295652
163 1 1.9120902 16.1032658 1.856911
128 1 4.0449438 14.102747 1.9748992
165 1 4.1311174 16.1939106 -0.0509524
565 1 4.1205487 16.1144447 4.0509596
162 1 1.9814028 18.1692295 -0.1253887
126 1 5.9339676 14.1973744 -0.0182659
526 1 5.9361626 13.888939 4.0441718
167 1 6.1306219 16.2380142 2.0761201
132 1 7.9375372 14.0861626 2.0761201
169 1 8.0452127 16.1351337 -0.1420952
569 1 8.0327339 16.0010777 4.0626259
130 1 10.022686 14.0190945 0.0081763
530 1 10.0579681 14.2107887 3.8122432
171 1 9.8716794 16.1689129 1.8143528
136 1 12.1967726 14.1469717 1.8070483
173 1 12.1077128 16.2445984 -0.0640624
573 1 12.1829529 16.1934223 3.8735038
562 1 1.9019364 18.1697578 3.8427332
203 1 1.997097 20.2684841 1.9975116
602 1 1.9882926 22.3525753 3.752048
168 1 3.9394096 18.1791077 1.9708428
208 1 3.981655 22.4182625 1.921805
605 1 3.9277156 20.2524281 3.97129
166 1 6.1336703 18.2348766 0.0305663
566 1 5.9021406 18.1965866 4.0781531
206 1 5.955999 22.1924648 -0.0615668
207 1 6.0450988 20.2166977 1.9692858
606 1 6.0298557 22.213644 4.0415702
172 1 8.1695547 18.2949944 1.8908966
209 1 8.0148487 20.3513241 -0.2804346
212 1 8.0817547 22.1944161 1.9580264
609 1 8.0399694 20.1436958 4.0319772
570 1 10.0555296 18.0176945 4.1422138
210 1 9.9305782 22.0964546 -0.1150691
211 1 10.0697565 20.3944512 1.9893944
610 1 10.1212978 22.1857987 4.0712838
176 1 12.1079979 18.1129742 1.9448972
216 1 12.0799513 22.3325787 1.9352026
613 1 12.0360928 20.2884026 4.058073
243 1 1.9498602 24.311636 1.8116822
244 1 -0.2922192 26.4228821 1.8794298
641 1 0.0456178 24.4670735 3.955291
642 1 1.838961 26.406826 3.8775846
248 1 4.1030703 26.390688 1.9756188
645 1 4.0235629 24.2545681 4.0213275
246 1 6.1178179 26.1355038 -0.085475
247 1 6.0489197 24.36903 2.0809491
646 1 6.0413594 26.4277592 4.114533
252 1 8.0598059 26.256958 2.083461
649 1 7.9937936 24.2229843 4.2002997
250 1 10.0267916 26.338253 0.2498692
251 1 10.075244 24.2235127 2.0279648
650 1 10.0958109 26.5080796 3.996085
253 1 12.0327587 24.2724915 -0.1042318
256 1 12.2090492 26.3133774 2.0186808
653 1 12.1894159 24.2103424 4.0949407
282 1 1.9838702 30.2617779 0.0085173
283 1 2.0124333 28.3941345 1.9965076
681 1 0.0680375 28.2502842 3.8843606
682 1 1.9873618 30.3376675 4.0520978
285 1 3.8923112 28.4641724 -0.1563419
288 1 4.0264087 30.4317665 1.9581036
685 1 4.0538049 28.4605942 3.7538975
286 1 5.9118958 30.3044586 -0.1024757
287 1 6.1542783 28.2042694 1.8305956
686 1 5.9525844 30.4073792 3.8597158
289 1 8.0421639 28.278616 -0.1115863
292 1 7.9511948 30.300272 1.9540796
689 1 7.8846546 28.4160862 4.0483179
291 1 10.0617895 28.5555897 2.0818963
690 1 10.0272799 30.5861893 4.0751452
296 1 12.0337343 30.2569008 1.8613376
693 1 12.1060476 28.4703522 4.195056
323 1 2.0223715 32.3999329 1.8506146
324 1 -0.0390523 34.3796044 1.8376845
721 1 0.0659157 32.5966683 3.962108
722 1 2.0268593 34.5341454 4.0020604
325 1 3.859285 32.3468475 -0.0819175
328 1 4.0066133 34.5535355 2.0370333
725 1 3.8490744 32.3292885 3.9915732
326 1 5.934374 34.5495529 -0.0569739
327 1 5.9034004 32.5157814 1.8902706
726 1 6.0175395 34.4193573 4.1692853
329 1 8.0387497 32.3193703 -0.0352103
332 1 8.0193605 34.555809 1.8007317
729 1 7.9309112 32.4948883 3.9873456
330 1 10.0553665 34.320137 -0.2343291
331 1 9.92066 32.4629784 1.9207282
730 1 10.0789833 34.394886 3.7989028
336 1 12.0950308 34.4340706 1.8781658
733 1 12.207139 32.3730278 3.7040594
1 1 -0.1475571 40.6059494 -0.1344543
405 1 3.8199826 40.6161118 3.916643
363 1 1.7754976 36.5562096 1.928
762 1 1.8642356 38.3529244 4.0496588
368 1 3.7797454 38.5611611 1.887653
765 1 4.0466919 36.6234017 3.935581
7 1 5.8164549 40.5713959 2.0444026
366 1 5.96799 38.6366463 -0.1130566
367 1 6.0559516 36.630188 1.898888
766 1 6.0855026 38.5894547 3.980273
369 1 8.0170031 36.572712 -0.145304
372 1 7.9381466 38.5530739 1.8888764
769 1 8.0576515 36.4982872 4.0166531
11 1 10.2255182 40.5201798 1.7933623
370 1 10.0376444 38.6172943 -0.1142119
371 1 10.1144695 36.5898247 1.7884398
770 1 10.029068 38.5636406 4.0233598
376 1 12.0709677 38.4567795 1.8171451
773 1 12.171855 36.4480858 3.8786738
403 1 1.9048226 -0.2768373 6.0886736
802 1 2.0029337 1.9083628 8.0207434
443 1 1.9683876 3.9829558 5.992704
408 1 3.9737284 1.8911932 6.0185151
845 1 4.0385623 4.0248637 7.9317246
806 1 5.9239684 1.907985 7.8411614
447 1 6.0658288 3.8598052 5.823812
412 1 8.0013542 1.7659127 6.1591969
849 1 8.0595207 3.9586484 7.8082772
411 1 10.1753187 -0.2439057 6.1469216
810 1 10.0583344 2.0133398 7.8241706
451 1 10.1382475 4.0762429 5.8718176
416 1 12.0544252 1.912493 5.9302688
853 1 12.0871458 4.0797381 7.8122607
444 1 -0.1912035 5.9010024 5.9954678
842 1 1.8375137 5.909864 8.0049315
483 1 1.8498952 8.0059471 5.9633966
448 1 3.8843036 6.0478625 6.1260285
885 1 3.9156998 8.170042 8.0859423
846 1 6.192894 6.1826911 7.977047
487 1 5.855639 8.0318804 5.8695412
452 1 8.1096392 6.1565952 5.8665334
889 1 7.8912392 8.079072 8.0901289
850 1 10.0588226 6.1689115 7.8395758
491 1 9.9083434 7.9922086 5.9589252
456 1 12.1555147 5.9662828 5.8240156
893 1 12.0530424 8.1885777 7.9094896
882 1 1.7002057 10.0928841 8.1182566
523 1 1.7629577 12.0929184 6.0825758
488 1 3.7371018 10.0397577 6.0798931
925 1 3.6442135 12.0303202 8.104681
886 1 5.9839644 10.096015 8.0932989
527 1 5.7920256 11.9938994 6.0786738
492 1 7.8949786 9.8673716 5.9372196
929 1 7.8094154 12.2747355 8.1273623
890 1 9.9559022 10.1635304 8.0310268
531 1 10.0244751 12.1631165 5.9644538
496 1 12.1866112 10.2086496 5.9604698
933 1 11.9928026 12.0755205 8.0221252
922 1 1.8408878 14.1646538 7.859127
563 1 1.844245 16.2366333 5.9407558
528 1 3.839331 14.0512056 5.9818916
965 1 3.84892 16.2521191 7.984851
926 1 5.8408842 14.195261 8.0329371
567 1 6.1281824 16.2229748 6.0005488
532 1 7.9729004 14.0621405 6.1005421
969 1 8.0167589 15.9316112 8.1074848
930 1 10.0830479 13.9422284 8.0174503
571 1 10.041791 16.0685539 6.0245309
536 1 12.171855 14.2309494 5.850721
973 1 12.0046711 16.0620098 7.9637136
564 1 -0.1637178 18.1360626 5.7112589
962 1 1.7173387 18.1655312 7.8135205
603 1 1.794984 20.4647312 5.934374
1001 1 -0.0937416 20.1880417 7.91949
1002 1 1.9769602 22.1531582 7.9155866
568 1 3.8144748 18.2193489 5.906612
608 1 3.9501732 22.4450913 5.9958744
1005 1 3.9421656 20.3514462 7.9808264
966 1 5.9788428 18.2359734 8.1466694
607 1 5.9030752 20.242754 5.9524628
1006 1 6.1124926 22.299448 7.9591618
572 1 8.0050125 18.2055283 6.1461902
612 1 7.9468862 22.0943432 5.9929882
1009 1 8.0730972 20.2498684 8.1631727
970 1 9.9846802 18.118948 8.0833406
611 1 10.0600824 20.1634502 6.0994444
1010 1 10.1154852 22.1492157 8.1082983
576 1 12.0115414 18.0289955 6.0383105
616 1 12.1566534 22.1907578 6.2069578
1013 1 12.0464163 20.1948719 8.0134668
643 1 1.976834 24.2915154 6.122817
644 1 0.018009 26.3698769 6.0032315
1041 1 -0.0640851 24.2769222 8.091795
1042 1 1.9835736 26.3778439 8.0984612
648 1 4.1038017 26.339756 5.9794526
1045 1 4.0616093 24.2900925 8.0144835
647 1 6.1201348 24.2843609 6.0703001
1046 1 6.2045598 26.3778038 7.8681102
652 1 8.203454 26.3514233 5.8789716
1049 1 8.3436899 24.3009853 7.8808738
651 1 10.2414112 24.2556648 5.8203573
1050 1 10.2229176 26.5492554 7.9000192
656 1 12.1773434 26.4132881 6.0503016
1053 1 12.0355234 24.2875729 8.0580978
683 1 2.0100634 28.3914528 5.9142948
684 1 -0.1609269 30.3584385 5.9236436
1082 1 1.9615872 30.2475929 8.2378426
688 1 4.1031923 30.2497883 5.9207574
1085 1 3.9862484 28.2755242 8.0489931
687 1 6.1110292 28.3782025 5.9873382
1086 1 6.1949263 30.4018116 7.9120102
692 1 7.9940786 30.510706 5.9520564
1089 1 8.1635389 28.5437603 8.1095181
691 1 10.0143948 28.5353871 6.1124926
1090 1 10.2073088 30.6363068 7.9087182
696 1 12.2095776 30.501236 6.0911527
1093 1 12.1952696 28.4789276 8.0512285
723 1 2.0763924 32.3417282 6.1132646
1121 1 -0.1178507 32.3811569 8.0581389
1122 1 1.9608392 34.4203339 8.0504971
728 1 3.8685406 34.3880158 5.9588038
1125 1 3.932309 32.266243 8.1248417
727 1 6.0050607 32.4452591 6.1001763
1126 1 6.0127835 34.4113083 8.0622845
732 1 8.1541891 34.6655617 5.961608
1129 1 8.1549625 32.5394783 7.9463578
731 1 10.1212978 32.6295548 5.9375854
1130 1 10.3145781 34.5450402 7.9503002
736 1 12.3016443 34.4415512 5.8486076
1133 1 12.2408352 32.6006127 8.1217938
805 1 3.9058226 40.5325775 8.0446434
763 1 1.888478 36.3447609 6.1127772
1161 1 -0.1021432 36.4188194 8.163579
1162 1 1.8586222 38.4389305 8.1482554
768 1 3.952986 38.5375862 6.0821695
1165 1 3.9144442 36.3540688 8.0090771
407 1 6.0290022 40.4423828 5.9602672
809 1 8.0986242 40.4094544 8.1054936
767 1 5.8743782 36.590149 5.9848996
1166 1 5.9453492 38.5662422 7.978713
772 1 8.0956163 38.4521446 6.0169706
1169 1 8.0349693 36.3843918 8.0563498
813 1 12.1529951 40.4666481 8.0874863
771 1 10.2573052 36.5093003 5.7235751
1170 1 10.1495886 38.4085274 8.0400105
776 1 12.184782 38.4230423 5.9779892
1173 1 12.1608 36.4720688 8.0887871
803 1 1.8467164 -0.1938675 10.1316223
1202 1 1.8882464 2.0070636 12.0908442
843 1 1.9704562 3.9511856 10.1492634
808 1 4.0010037 1.9394504 10.0504894
1205 1 3.7995813 -0.2093075 12.0978365
1245 1 4.0504723 3.9632618 12.0343447
807 1 6.0296521 -0.1658197 9.9982568
1206 1 5.9496574 1.9497018 12.0632849
847 1 6.0054269 3.8828242 10.0095577
812 1 8.0383434 1.8410178 9.9866314
1249 1 8.0435867 3.871089 11.9229698
811 1 10.1251993 -0.1831576 10.3105946
1210 1 10.0247593 1.9587052 12.0814962
851 1 10.0174026 4.0009222 9.8212357
816 1 11.9863796 1.9505228 9.9713478
1213 1 12.0738544 0.1126281 12.0697489
1253 1 12.0900316 4.0023856 11.9639836
844 1 -0.1523482 6.0534315 10.0876417
1242 1 1.9197442 5.8626308 12.1706371
883 1 1.9468076 8.0387907 10.0600824
1281 1 -0.1703885 7.9485932 12.1601896
848 1 3.8841774 5.9133592 10.0161819
1285 1 3.9481858 8.0508223 12.1312485
1246 1 5.938683 5.925635 12.0911293
887 1 5.9490486 7.9309112 10.0936575
852 1 8.1851225 6.0085969 10.0076876
1289 1 8.0259457 8.0277748 12.0649118
1250 1 10.0760965 6.031888 12.0703983
891 1 9.9839898 8.1058598 9.9773236
856 1 11.9145556 5.934537 10.0393114
1293 1 12.0007696 8.0162716 12.0399942
884 1 -0.1875451 10.0267105 10.1506052
1282 1 1.9928574 9.982689 12.1536045
923 1 1.7474628 12.0851946 10.1605625
1321 1 0.0779121 12.2059994 12.2119341
888 1 3.8660772 9.9452114 9.9850464
1325 1 3.733285 12.0672283 12.0965357
1286 1 5.8877512 10.0484161 12.1331186
927 1 5.7482887 12.1214523 10.194911
892 1 7.8802238 10.0789833 9.8852968
1329 1 7.937212 12.0946255 12.2083569
1290 1 10.0913811 10.1012993 12.1038923
931 1 9.9575282 12.1497841 10.1909275
896 1 11.9521552 10.1345892 10.0749998
1333 1 12.0070705 12.2424202 12.1525889
924 1 -0.1183739 14.2076178 9.8750936
1322 1 1.9328046 14.257371 12.1052742
963 1 1.8140723 16.1427765 9.9783392
1361 1 -0.0721593 16.3564205 12.1601896
928 1 3.8704712 14.0706358 10.056139
1365 1 4.0284815 16.2462654 11.9175634
1362 1 2.0157297 18.2006912 11.8489084
1326 1 5.9240904 14.1181526 12.0486116
967 1 5.9955898 16.2003326 9.9100914
932 1 7.9692012 14.1391268 10.0526438
1369 1 8.0268402 15.9852668 12.1486464
1330 1 9.9144012 14.0603113 12.0505629
971 1 10.1825132 16.0540009 10.0283365
936 1 12.1099491 14.0258417 9.8830614
1373 1 12.1175909 16.154644 12.0959663
964 1 -0.2963369 18.3685665 9.9727708
1003 1 1.8896608 20.2429581 10.027442
1402 1 1.9650178 22.436718 12.1286469
968 1 3.8755522 18.1959763 9.9729328
1008 1 4.0549436 22.3346119 9.9449682
1405 1 4.0579515 20.3342514 11.9353266
1366 1 6.093307 18.2634926 11.9716244
1007 1 6.0279861 20.2999859 10.052969
1406 1 6.1746841 22.3662739 11.9846726
972 1 8.1411419 18.1492729 10.142231
1012 1 8.2119093 22.3651772 10.1672297
1409 1 8.1034203 20.2271443 12.082552
1370 1 10.0738621 18.2269497 12.133647
1011 1 10.1992598 20.1301594 9.8820858
1410 1 10.0703659 22.2833939 12.1351099
976 1 12.0434494 17.951439 10.0265884
1016 1 12.1112089 22.2706719 10.1495476
1413 1 12.246851 20.2866116 12.0073547
1043 1 2.1596718 24.3079376 9.9250498
1044 1 -0.0310378 26.2867928 10.0470343
1442 1 1.9755658 26.3480492 12.0603991
1048 1 4.1627007 26.4060955 10.0105734
1445 1 4.1037207 24.3616333 12.133647
1047 1 6.306098 24.4124413 9.974803
1446 1 6.0944452 26.3879662 12.0973082
1052 1 8.2120714 26.3495941 9.9513092
1449 1 8.1841469 24.4486199 12.090642
1051 1 10.2116175 24.2457867 10.1109333
1450 1 10.0193129 26.4428387 12.2091703
1056 1 12.1476698 26.5154782 10.126338
1453 1 11.9910146 24.3886643 12.1797419
1083 1 2.0535567 28.2820301 10.2245836
1084 1 -0.0828546 30.1916218 10.0643101
1482 1 1.982342 30.4015675 12.073123
1088 1 4.1159148 30.2916145 10.15341
1485 1 3.9493482 28.4033222 12.2205114
1087 1 6.0776982 28.278616 10.1086159
1486 1 6.1260285 30.2807198 12.1264935
1092 1 8.2643452 30.3556347 10.043539
1489 1 8.1534987 28.1992302 11.99016
1091 1 10.1026001 28.433281 10.1264601
1490 1 10.1167851 30.3795776 12.1142578
1096 1 12.1339312 30.5020085 10.0247183
1493 1 12.0869026 28.5794506 12.0616598
1123 1 2.0232658 32.2378731 10.0473595
1124 1 -0.0928149 34.5034561 10.0746336
1521 1 -0.1597095 32.266449 12.1121845
1522 1 1.8374934 34.4055786 12.1397438
1128 1 3.9182646 34.2885094 10.1974716
1525 1 3.959307 32.5136261 12.1869364
1127 1 6.3198776 32.3245735 10.2858811
1526 1 6.1118832 34.3528175 12.2007971
1132 1 8.2091456 34.3939514 10.0239058
1529 1 8.0991116 32.3272171 12.1325493
1131 1 10.2216158 32.5090752 9.9878922
1530 1 10.1162577 34.584507 12.0606432
1136 1 12.0845852 34.4028549 10.1086559
1533 1 12.1774654 32.4438744 12.1965694
1163 1 1.9611358 36.4649582 9.9920788
1562 1 1.9792242 38.3482094 12.1473455
1168 1 3.9390644 38.3493462 10.1041441
1565 1 3.9426496 36.3580513 12.0834065
1209 1 7.962739 40.3675079 12.1965694
1167 1 6.0081096 36.3921585 10.0393925
1566 1 6.1350522 38.4093018 12.0766993
1172 1 8.1216307 38.3027649 9.9424478
1569 1 8.1048832 36.3689461 12.1481991
1171 1 10.1238585 36.3463478 9.9977694
1570 1 9.987485 38.4530373 12.0521889
1176 1 12.1553125 38.4629975 10.0405712
1573 1 12.2072601 36.3531723 12.0512533
1203 1 1.8507772 0.062185 14.070879
1204 1 -0.2276324 2.1695571 14.0465708
1602 1 2.0122218 1.7595921 16.1439152
1243 1 1.9712126 3.8076136 14.1198187
1208 1 4.0147424 1.926317 14.1328268
1645 1 4.0554309 3.9771026 16.1584663
1606 1 5.9427476 1.8601424 15.9912424
1247 1 5.8575092 4.0060439 13.9939738
1212 1 8.0540743 2.0985374 13.935074
1649 1 8.0139551 4.0624228 15.9349452
1607 1 6.1720419 -0.0681882 18.1662216
1211 1 10.174221 0.0678513 14.0355558
1610 1 10.0263853 2.0150633 16.0222149
1251 1 10.1517839 4.0320182 14.0702696
1216 1 12.1403942 2.0317166 14.042345
1613 1 11.9411802 -0.064659 16.2687836
1653 1 12.1458416 3.8841656 16.0589199
1642 1 2.0300825 5.9255538 16.1063957
1283 1 2.0137625 8.0130196 14.0675058
1681 1 -0.1183567 7.83356 16.3840199
1248 1 3.9175824 5.9391704 14.0476284
1685 1 3.8292909 8.126874 16.1860256
1646 1 6.0216045 6.0434318 16.1554184
1287 1 5.9562836 7.8316903 14.0943327
1252 1 8.1280527 6.1017208 14.0343771
1689 1 7.9709092 8.0439119 16.0413589
1687 1 5.9371386 8.1230125 18.1790657
1650 1 9.9259854 5.9882732 16.1388741
1291 1 10.0198412 8.0941124 14.1036005
1256 1 12.04284 6.2063079 14.1528254
1693 1 12.0724316 8.0708618 16.2541523
1284 1 -0.0076418 9.8602172 14.2833853
1682 1 1.8266609 9.8674116 16.2652073
1323 1 1.9028632 12.1460438 14.206317
1721 1 -0.0123626 12.1323872 16.2143154
1288 1 3.9174154 10.009841 14.1807089
1725 1 3.8858604 12.1119404 16.1949673
1686 1 5.8726302 10.0543509 16.0681057
1327 1 5.9005962 12.2027073 14.1676617
1292 1 8.013711 10.0111017 14.0720978
1729 1 7.9190426 11.8564292 16.2319164
1690 1 9.9879322 10.0205727 16.2433396
1331 1 9.922165 12.0737734 14.153759
1296 1 12.0766172 10.231575 14.2164383
1733 1 11.9435788 12.0247517 16.0903397
1324 1 -0.1780405 14.1574173 14.0162077
1722 1 2.1045656 14.2693215 16.1393204
1363 1 1.9109236 16.1273708 14.2106676
1761 1 -0.0072052 16.1415577 16.2099266
1328 1 3.8806292 14.0413284 14.0019407
1765 1 4.0785594 16.0244503 16.0588799
1726 1 6.1044445 14.0857964 16.0498562
1367 1 5.992826 16.09408 13.983202
1332 1 8.0815926 14.1273804 14.1630278
1769 1 8.0252953 16.133955 16.0500584
1730 1 10.0602856 14.0440102 16.1314755
1371 1 10.0599604 16.2278519 14.0415716
1336 1 12.0636921 14.1807489 14.2539148
1773 1 12.0888939 16.1347275 16.2134628
1364 1 0.0865554 18.2201214 14.3426094
1762 1 2.1907103 18.3122292 16.1677342
1403 1 2.0395696 20.2053585 14.0355558
1801 1 -0.0313459 20.2322273 16.1994381
1802 1 2.0305052 22.21665 16.2338677
1368 1 4.1412387 18.1404915 13.9885274
1408 1 3.9840534 22.4850064 14.0966902
1805 1 4.0852261 20.458025 16.1519222
1766 1 6.2733765 18.1775227 16.2946358
1407 1 5.9979062 20.2855148 14.2454214
1806 1 5.9835988 22.3471699 16.0952187
1372 1 7.9730226 18.2614594 14.0104351
1412 1 8.0421639 22.2461205 14.2744427
1809 1 8.2534104 20.1549549 16.2496796
1770 1 10.1334105 18.1102505 16.1764317
1411 1 10.1091442 20.0816669 14.0572615
1810 1 10.0547171 22.2432346 16.1474114
1376 1 12.2176256 18.1608563 14.104332
1416 1 11.9943466 22.2983513 14.112299
1813 1 12.1333218 20.2141781 15.9933558
1443 1 1.9929672 24.3887863 14.1371355
1444 1 -0.0628626 26.2859802 14.2376576
1841 1 -0.0747729 24.1333561 16.092617
1842 1 1.9387594 26.4765358 16.1811066
1448 1 4.0430741 26.1429005 14.1869288
1845 1 4.0328307 24.3216763 16.2698422
1447 1 6.1885448 24.316555 14.2421684
1846 1 6.0249376 26.3226032 16.2550049
1452 1 7.9709492 26.4963742 14.1944075
1849 1 8.1490278 24.3870392 16.2086258
1451 1 10.0343924 24.286232 14.1491261
1850 1 10.0278893 26.3181725 16.2109413
1456 1 12.0738134 26.5473862 14.1399794
1853 1 11.9811774 24.5319081 16.0349369
1483 1 1.8334124 28.4788037 14.1692057
1484 1 -0.099741 30.4316044 14.2485914
1881 1 -0.3396487 28.4832764 16.2690277
1882 1 2.010417 30.4010391 16.135622
1488 1 3.9659246 30.5135498 14.109088
1885 1 3.8428712 28.4096623 16.0742435
1487 1 5.9700632 28.4256802 14.0656757
1886 1 5.9486418 30.5042839 16.1615563
1492 1 8.1281748 30.2321072 13.9875918
1889 1 7.9744044 28.5084381 16.2808972
1491 1 10.1632061 28.3579197 14.107585
1890 1 10.0254097 30.4368496 16.0663586
1496 1 12.1568575 30.4001026 14.2610283
1893 1 12.0800324 28.511406 16.1920815
1523 1 1.9053346 32.4311104 14.1463213
1921 1 -0.1153503 32.5543137 16.0745277
1922 1 1.8874496 34.4606552 16.05579
1528 1 4.1537986 34.4110642 14.3098068
1925 1 3.9931586 32.4300957 16.207325
1527 1 6.1484256 32.4246903 14.1922131
1926 1 5.8981566 34.5190659 16.1755791
1532 1 8.2746697 34.418911 14.2234306
1929 1 7.9054662 32.4605828 16.1893978
1531 1 10.1384516 32.4842797 14.0354338
1930 1 10.0728865 34.5189438 16.4016209
1536 1 12.031539 34.4101296 14.2803774
1933 1 12.0291004 32.3164024 16.256712
1601 1 -0.1177891 40.5653 16.1901722
1605 1 4.0641298 40.4237213 16.0560341
1563 1 1.9186224 36.3586197 14.0076723
1962 1 1.9623432 38.5134392 16.0655861
1568 1 3.9318698 38.4503975 14.0403929
1965 1 3.888088 36.4150391 16.1232243
1207 1 6.1004205 40.2657662 14.1077061
1609 1 8.0714712 40.8177223 16.1219635
1567 1 6.1733422 36.4421921 14.1320133
1966 1 6.0359936 38.329834 16.2193565
1572 1 8.2972698 38.4275933 14.1338425
1969 1 8.1320772 36.4616242 16.0285149
1571 1 10.2943354 36.4262619 14.0918932
1970 1 10.019556 38.6683083 16.0892029
1576 1 12.1899042 38.5739632 14.067749
1973 1 12.0174351 36.4176407 16.237608
1604 1 -0.1781018 1.809658 18.2658081
2002 1 2.0555077 1.9258496 20.156744
2003 1 1.9540428 -0.0492163 22.2318936
2004 1 -0.1512276 1.8678168 22.1986427
1643 1 2.0451221 3.8542936 18.0658226
2043 1 1.8703654 3.9955976 22.2743702
1608 1 4.1373768 1.7875861 18.2683296
2008 1 3.9552338 2.1048257 22.1563702
2045 1 3.9363124 4.0474234 20.3392925
2006 1 6.180903 2.0654867 20.2924271
1647 1 5.9382358 3.961335 18.1621971
2047 1 5.9598608 4.0975423 22.3898506
1612 1 7.9778186 1.9494376 17.9861526
2012 1 8.1880894 1.8176818 22.3057099
2049 1 7.9622508 3.9628352 20.2731991
1611 1 10.2104788 -0.2107969 18.0508232
2010 1 10.0121994 2.0147421 20.0539455
1651 1 10.1452799 4.0177913 18.2023983
2051 1 10.0891047 3.8751824 22.2928658
1616 1 12.2961569 1.924126 18.0339546
2013 1 12.0183287 -0.006741 20.1496296
2016 1 12.0693417 1.9624896 22.2324219
2053 1 12.0685701 4.0355134 20.3145371
2042 1 1.9957758 6.0959897 20.4450588
2044 1 -0.1262273 6.0451393 22.250063
1683 1 1.8871732 8.0836659 18.2164631
2081 1 -0.2381041 7.9574548 20.1642227
2083 1 1.8830558 8.1464262 22.2780285
1648 1 3.874585 6.0926971 18.2733288
2048 1 3.9090178 6.0800152 22.3978577
2085 1 3.9560026 8.0278158 20.1834488
2046 1 6.0576997 6.0260348 20.1621094
2087 1 5.9979062 8.0230598 22.2386799
1652 1 7.8986778 5.9698192 18.076107
2052 1 8.0925674 5.9755508 22.3396092
2089 1 7.9809484 7.9972076 20.1866188
2050 1 10.1082897 5.9510398 20.1363792
1691 1 9.947732 8.1406536 18.3766956
2091 1 10.1962929 7.9842416 21.963131
1656 1 12.2080326 5.9764854 18.0516777
2056 1 12.1041765 5.8846212 22.2468109
2093 1 12.1559219 7.9790382 20.0474014
2082 1 2.0563207 10.1777163 20.226944
2084 1 -0.1507061 9.9963056 22.3080254
1723 1 1.9366174 12.1090145 18.0155411
2121 1 0.0548355 12.2649803 20.3383579
2123 1 1.8779706 12.3224564 22.2961178
1688 1 3.915879 10.1827173 18.1995945
2088 1 3.705307 10.1664162 22.3720875
2125 1 3.9836876 12.0962505 20.247673
2086 1 5.9334798 10.0174837 20.1174374
1727 1 5.8764916 12.1395006 18.2310543
2127 1 5.955348 12.1818953 22.1940918
1692 1 8.002655 9.9899646 18.1746769
2092 1 8.0018415 10.0318728 22.1318188
2129 1 7.8759962 12.0722275 20.1608887
2090 1 9.9278556 10.2948237 20.0527267
1731 1 9.9927282 12.2034388 18.1556931
2131 1 9.8785496 12.2206335 22.2699814
1696 1 11.9054508 10.1362562 18.2157307
2096 1 12.1549053 9.933383 22.1809616
2133 1 12.1222248 12.073082 20.121542
1724 1 -0.0669137 14.3214722 18.2057724
2122 1 1.917529 14.2379818 20.4049397
2124 1 -0.0976513 14.1686773 22.4630165
1763 1 2.2214968 16.1951714 18.3112126
2161 1 0.0248114 16.1708241 20.2434445
2163 1 1.883893 16.2199669 22.4118805
1728 1 3.8307584 14.0996981 18.3864517
2128 1 4.0456758 14.3012705 22.3593655
2165 1 4.0446591 16.2805729 20.352747
2126 1 5.9036446 14.2577772 20.1294689
1767 1 6.0396519 16.0206699 18.0925674
2167 1 5.8397466 16.2602883 22.2772141
1732 1 7.8259998 13.9888516 18.0194836
2132 1 7.8611194 14.0780735 22.2330723
2169 1 7.8141303 16.2080975 20.2515755
2130 1 9.9989072 14.1160393 20.1771069
1771 1 9.9292364 16.0832272 18.1183796
2171 1 10.0982513 16.0904617 22.1427116
1736 1 12.0132895 14.043889 18.2581673
2136 1 12.1773033 14.11864 22.2128296
2173 1 12.081008 16.048027 20.1226387
2162 1 1.9330482 18.2324791 20.1797104
1803 1 1.9615058 20.3273831 18.190855
1804 1 -0.1490972 22.3799725 18.0992756
2201 1 0.0652559 20.3053532 20.2256813
2202 1 2.0516868 22.4040775 20.0437431
2203 1 1.977525 20.2854347 22.3944855
1768 1 4.0527077 18.2425995 18.1321583
2168 1 3.9446982 18.2402001 22.4985829
1808 1 3.885389 22.3980198 18.2419891
2205 1 3.9455354 20.0988617 20.1885719
2208 1 4.2202983 22.1444187 22.1972218
2166 1 5.959332 18.2907257 20.0527668
1807 1 5.8273487 20.3789253 18.0518398
2206 1 6.1752939 21.9348812 20.2936459
2207 1 6.0305467 20.0187855 22.2480297
1772 1 8.1807327 18.1373615 18.380558
2172 1 8.0907383 18.0244026 22.2346172
1812 1 8.0225725 22.168972 18.1360626
2209 1 8.0407419 20.0410194 20.2053986
2212 1 7.9580232 22.3533497 22.3676586
2170 1 10.2110481 17.964121 20.311285
1811 1 10.1594667 20.0591469 18.2400379
2210 1 9.9982568 22.1781159 20.245884
2211 1 10.018012 20.1756439 22.2732735
1776 1 12.167263 18.2263394 18.1628075
2176 1 12.0464573 18.1902847 22.2697773
1816 1 12.2513628 22.2400227 18.1511822
2213 1 12.0486927 20.1995869 20.2324276
2216 1 12.1927481 22.296402 22.1058044
1843 1 1.9150656 24.4211827 18.1124439
2242 1 2.0348017 26.2163105 20.1872692
2243 1 2.1147153 24.107584 22.2327461
1848 1 4.1101427 26.1870022 18.2725983
2245 1 4.1197767 24.1320133 20.3188877
2248 1 4.0118971 26.4284096 22.074749
1847 1 6.0136375 24.2170887 18.3209686
2246 1 6.1338735 26.5677109 20.2873039
2247 1 6.0166454 24.4308968 22.4294415
1852 1 8.1509781 26.317606 18.385313
2249 1 7.9022142 24.2190819 20.2457218
2252 1 7.9241228 26.3497162 22.3641205
1851 1 10.0205317 24.3264332 18.2231693
2250 1 10.2597036 26.2988644 20.1995869
2251 1 9.997038 24.2011547 22.2420559
1856 1 12.2040081 26.3810959 18.3380814
2253 1 12.0756426 24.2761917 20.0536594
2256 1 12.0958042 26.2043591 22.2548599
1883 1 1.9740336 28.3040199 18.2039833
1884 1 -0.0942333 30.464531 18.3387318
2282 1 1.9336986 30.2808819 20.2718983
2283 1 1.9237158 28.3191395 22.1221027
1888 1 3.9669406 30.3503094 18.1937809
2285 1 4.0147424 28.3682423 20.1467037
2288 1 3.9941748 30.3318958 22.3190842
1887 1 6.0283923 28.4108009 18.0845203
2286 1 6.0620894 30.3088074 20.4910717
2287 1 6.1768384 28.4646607 22.4025307
1892 1 8.1928053 30.4251843 18.3060913
2289 1 8.1662617 28.2359753 20.3388443
2292 1 8.1626034 30.5783844 22.3957462
1891 1 10.1064205 28.2284966 18.2056103
2290 1 10.1211357 30.4340859 20.3182373
2291 1 10.1424341 28.2723961 22.3126202
1896 1 12.089015 30.4857083 18.2081699
2293 1 12.0209312 28.3839741 20.3161659
2296 1 12.1979513 30.3176708 22.3492832
1923 1 1.9821712 32.3377838 18.211586
2322 1 1.8176046 34.348629 20.4127426
2323 1 2.0185061 32.2693749 22.339529
2324 1 -0.2107014 34.3561516 22.3543244
1928 1 3.8908806 34.3029823 18.343811
2325 1 3.826783 32.2691307 20.2902317
2328 1 3.9619816 34.6073113 22.3519268
1927 1 6.0097756 32.2930298 18.2619877
2326 1 6.0118895 34.2922936 20.1894646
2327 1 5.8294621 32.3519287 22.3165226
1932 1 8.0043621 34.6682854 18.2136574
2329 1 7.9681044 32.5565529 20.164629
2332 1 7.9300576 34.4627686 22.2918491
1931 1 9.9805346 32.5718766 18.152565
2330 1 10.0823574 34.5156899 20.2550697
2331 1 9.91436 32.6293526 22.3506661
1936 1 12.1586056 34.4905739 18.2142677
2333 1 11.9846726 32.452816 20.2790527
2336 1 12.2431917 34.3712731 22.2556324
1603 1 1.9426982 40.3626289 18.1602058
2005 1 4.1668062 40.4729462 20.1332493
1963 1 1.855281 36.5464134 18.1591892
2361 1 -0.1501211 36.4662972 20.1888962
2362 1 2.0451181 38.4687691 20.1755238
2363 1 1.863309 36.4699974 22.3675747
1968 1 4.1273775 38.6228256 18.0833817
2365 1 3.9478768 36.4483719 20.2162933
2368 1 3.7606776 38.3829613 22.1706352
2007 1 5.9783144 40.708786 22.3944035
2009 1 8.0996809 40.5648918 20.2021465
1967 1 5.9611612 36.4032517 18.2585335
2366 1 5.9981504 38.5016136 20.2470207
2367 1 5.8226333 36.6584397 22.2833138
1972 1 7.9470492 38.4670601 18.2158527
2369 1 7.8672166 36.442112 20.3020191
2372 1 7.8979054 38.5590477 22.3114815
2011 1 10.0672369 40.5953789 22.1342163
1971 1 9.9641132 36.7043686 18.042654
2370 1 10.0756502 38.5725441 20.1735325
2371 1 10.1083727 36.4377632 22.4029789
1976 1 12.2266894 38.4562493 18.1778069
2373 1 12.184741 36.6105957 20.3123417
2376 1 12.0844231 38.5917282 22.2335205
2402 1 1.5354522 2.1927712 24.4364243
2403 1 1.9236628 0.1315008 26.3376846
2404 1 -0.3198426 2.0565116 26.4766178
2441 1 -0.3206975 4.0238476 24.4172382
2443 1 1.85283 4.1021352 26.5042191
2408 1 3.8274458 2.19471 26.336546
2445 1 3.6985355 3.916838 24.1947346
2406 1 5.9464874 2.0101204 24.3122463
2447 1 5.9859558 3.9470718 26.2310238
2412 1 8.0691948 2.0844531 26.5107212
2449 1 8.0606184 3.8250392 24.3963852
2410 1 10.0568304 1.8932174 24.3385849
2411 1 10.1022339 -0.1320987 26.4405232
2451 1 10.183773 4.1022167 26.3184166
2416 1 12.045969 2.1247673 26.4728375
2453 1 12.0033302 3.9921014 24.2672901
2442 1 1.86463 6.0546103 24.3382187
2483 1 1.919338 7.9992 26.3665428
2448 1 4.0044179 5.9922156 26.3193932
2485 1 3.9220288 8.1175251 24.3041573
2446 1 6.0602603 6.1591158 24.306921
2487 1 6.0433102 8.158742 26.0980663
2452 1 8.0952501 6.0068488 26.3999138
2489 1 8.2049999 8.0715933 24.1613636
2450 1 10.0771942 6.098063 24.1935139
2491 1 10.024353 8.0189953 26.2474461
2456 1 12.1919355 5.982298 26.4564972
2493 1 12.0873079 7.9220506 24.2267628
2482 1 1.7890128 10.0726833 24.3663483
2523 1 1.8425176 12.0937309 26.4486923
2488 1 3.8797146 10.2753124 26.349186
2525 1 3.9319514 12.1797419 24.1851807
2486 1 5.9348212 10.1713762 24.2617607