LAMMPS (17 Nov 2016)
Reading data file ...
  orthogonal box = (-0.09995 -0.09995 -0.09995) to (40.5478 40.5478 40.5478)
  1 by 1 by 5 MPI processor grid
  reading atoms ...
  4000 atoms
Neighbor list info ...
  1 neighbor list requests
  update every 1 steps, delay 10 steps, check yes
  max neighbors/atom: 2000, page size: 100000
  master list distance cutoff = 8.28721
  ghost atom cutoff = 8.28721
  binsize = 4.1436, bins = 10 10 10
Setting up Verlet run ...
  Unit style    : metal
  Current step  : 0
  Time step     : 0.001
Memory usage per processor = 3.8835 Mbytes
Step PotEng KinEng TotEng Enthalpy Temp Volume Press 
       0   -13285.092    129.22783   -13155.865   -13165.424          250    67159.926   -228.06324 
    1000   -13305.889    134.58838     -13171.3   -13225.148    260.37036    67159.926   -1284.5898 
    2000   -13312.583    129.05356   -13183.529   -13253.953    249.66287    67159.926   -1680.0406 
    3000   -13311.438    127.79122   -13183.647   -13254.628    247.22078    67159.926   -1693.3345 
    4000     -13308.1    129.73361   -13178.367   -13239.272    250.97846    67159.926   -1452.9602 
    5000   -13311.262    128.72155   -13182.541     -13254.6    249.02056    67159.926   -1719.0575 
    6000   -13312.477    129.62334   -13182.854   -13254.281    250.76513    67159.926   -1703.9658 
    7000   -13310.542    132.19732   -13178.344   -13244.556    255.74468    67159.926   -1579.5591 
    8000   -13312.527    131.22719     -13181.3   -13252.916    253.86791    67159.926   -1708.4935 
    9000    -13310.69    128.75172   -13181.939   -13247.935    249.07894    67159.926   -1574.4182 
   10000   -13309.799    132.06964   -13177.729   -13239.684    255.49767    67159.926   -1477.9874 
   11000   -13311.181    129.75218   -13181.428   -13249.422    251.01439    67159.926   -1622.0743 
   12000   -13312.807    130.20081   -13182.606   -13253.428    251.88229    67159.926   -1689.5394 
   13000   -13310.143    133.66625   -13176.477   -13238.018    258.58643    67159.926   -1468.1443 
   14000   -13307.578    128.41815    -13179.16   -13241.674    248.43363    67159.926   -1491.3523 
   15000   -13308.862    126.59788   -13182.264   -13249.138    244.91218    67159.926   -1595.3496 
   16000   -13312.552    129.38621   -13183.166   -13256.451    250.30639    67159.926   -1748.3119 
   17000   -13309.276    131.40446   -13177.872   -13242.054    254.21084    67159.926   -1531.1514 
   18000   -13309.758    127.49198   -13182.267   -13248.784    246.64188    67159.926   -1586.8407 
   19000    -13310.18    128.43712   -13181.743   -13249.784    248.47032    67159.926   -1623.2001 
   20000   -13308.791     130.5441   -13178.247   -13242.783    252.54641    67159.926    -1539.586 
   21000   -13311.704    132.03234   -13179.672   -13244.676    255.42552    67159.926   -1550.7549 
   22000   -13310.895    127.90841   -13182.987    -13251.19     247.4475    67159.926   -1627.0672 
   23000   -13308.782    130.74498   -13178.037   -13240.297    252.93503    67159.926   -1485.2957 
   24000   -13312.768     130.5174    -13182.25   -13253.691    252.49475    67159.926   -1704.3112 
   25000   -13310.497    128.12404   -13182.373   -13251.503    247.86465    67159.926   -1649.1891 
   26000   -13306.829      128.159    -13178.67   -13238.535    247.93227    67159.926   -1428.1463 
   27000   -13312.461    127.76701   -13184.694    -13256.47    247.17394    67159.926   -1712.3106 
   28000   -13311.175    129.83748   -13181.338    -13248.76    251.17942    67159.926   -1608.4327 
   29000   -13311.193    130.99499   -13180.198   -13249.483     253.4187    67159.926   -1652.8756 
   30000   -13309.517    127.67727    -13181.84   -13248.334    247.00034    67159.926   -1586.3014 
   31000   -13311.585    129.63289   -13181.953   -13251.691    250.78362    67159.926   -1663.7018 
   32000   -13311.192    131.15334   -13180.039   -13248.268    253.72503    67159.926   -1627.7008 
   33000   -13309.697    127.57485   -13182.123   -13245.651    246.80221    67159.926   -1515.5382 
   34000   -13311.174    126.50237   -13184.671    -13253.94    244.72742    67159.926   -1652.4792 
   35000   -13310.915    132.19855   -13178.716   -13243.354    255.74706    67159.926   -1542.0113 
   36000    -13312.17    128.99672   -13183.174   -13256.227     249.5529    67159.926   -1742.7694 
   37000   -13309.056    128.53815   -13180.518   -13247.965    248.66576    67159.926   -1609.0131 
   38000    -13310.67    131.54382   -13179.126   -13246.606    254.48045    67159.926   -1609.8172 
   39000   -13310.538     127.2962   -13183.242   -13249.969    246.26313    67159.926   -1591.8458 
   40000   -13310.497    132.46736    -13178.03   -13244.757     256.2671    67159.926   -1591.8624 
   41000   -13309.625    130.63437   -13178.991   -13241.749    252.72104    67159.926    -1497.174 
   42000    -13313.45    131.28493   -13182.165   -13255.386     253.9796    67159.926   -1746.7664 
   43000   -13310.113    128.83384   -13181.279    -13247.88     249.2378    67159.926   -1588.8416 
   44000   -13309.937    131.91527   -13178.022   -13241.293    255.19903    67159.926   -1509.3922 
   45000   -13310.479    127.08162   -13183.398   -13250.371    245.84802    67159.926   -1597.7162 
   46000   -13310.437    129.43018   -13181.007   -13245.634    250.39147    67159.926   -1541.7599 
   47000   -13308.088     133.6858   -13174.402   -13235.524    258.62424    67159.926   -1458.1345 
   48000   -13308.515    129.21126   -13179.304   -13241.996    249.96794    67159.926   -1495.6048 
   49000   -13309.972    126.99664   -13182.975   -13249.466    245.68361    67159.926   -1586.2061 
   50000   -13309.933    128.81227   -13181.121   -13244.134    249.19606    67159.926   -1503.2507 
   51000   -13308.872    130.36272   -13178.509   -13242.082    252.19551    67159.926   -1516.6104 
   52000   -13312.353    130.20846   -13182.144   -13256.312     251.8971    67159.926   -1769.3477 
   53000   -13310.684    129.57054   -13181.113   -13249.485      250.663    67159.926   -1631.0837 
   54000   -13310.282    133.16693   -13177.116   -13242.631    257.62045    67159.926   -1562.9426 
   55000    -13312.26    129.72627   -13182.533   -13253.882    250.96426    67159.926   -1702.0977 
   56000   -13310.569    128.54097   -13182.028   -13245.978    248.67122    67159.926   -1525.6091 
   57000   -13308.567    132.08583   -13176.481   -13234.885    255.52899    67159.926   -1393.2856 
   58000   -13311.983    128.81876   -13183.164   -13255.588    249.20862    67159.926    -1727.749 
   59000   -13309.608    127.83183   -13181.776   -13250.846    247.29933    67159.926   -1647.7244 
   60000   -13310.208    131.49826    -13178.71   -13245.326     254.3923    67159.926   -1589.2093 
Loop time of 144.167 on 5 procs for 60000 steps with 4000 atoms

Performance: 35.958 ns/day, 0.667 hours/ns, 416.184 timesteps/s
99.9% CPU use with 5 MPI tasks x no OpenMP threads

MPI task timing breakdown:
Section |  min time  |  avg time  |  max time  |%varavg| %total
---------------------------------------------------------------
Pair    | 129.19     | 131.12     | 134.73     |  17.6 | 90.95
Neigh   | 0          | 0          | 0          |   0.0 |  0.00
Comm    | 7.5214     | 10.966     | 12.811     |  59.4 |  7.61
Output  | 0.026336   | 0.026407   | 0.026637   |   0.1 |  0.02
Modify  | 1.2145     | 1.3464     | 1.4298     |   8.2 |  0.93
Other   |            | 0.7053     |            |       |  0.49

Nlocal:    800 ave 809 max 789 min
Histogram: 1 0 1 0 0 0 1 0 0 2
Nghost:    4585 ave 4600 max 4569 min
Histogram: 1 0 0 0 2 0 1 0 0 1
Neighs:    55791.2 ave 57884 max 54830 min
Histogram: 2 1 0 1 0 0 0 0 0 1

Total # of neighbors = 278956
Ave neighs/atom = 69.739
Neighbor list builds = 0
Dangerous builds = 0
All done
Total wall time: 0:02:24
