LAMMPS (17 Nov 2016)
Reading data file ...
  orthogonal box = (-0.09995 -0.09995 -0.09995) to (40.5478 40.5478 40.5478)
  3 by 1 by 1 MPI processor grid
  reading atoms ...
  4000 atoms
Neighbor list info ...
  1 neighbor list requests
  update every 1 steps, delay 10 steps, check yes
  max neighbors/atom: 2000, page size: 100000
  master list distance cutoff = 8.28721
  ghost atom cutoff = 8.28721
  binsize = 4.1436, bins = 10 10 10
Setting up Verlet run ...
  Unit style    : metal
  Current step  : 0
  Time step     : 0.001
Memory usage per processor = 3.78091 Mbytes
Step PotEng KinEng TotEng Enthalpy Temp Volume Press 
       0   -13285.092     155.0734   -13130.019   -13122.349          300    67159.926    182.98703 
    1000   -13286.184     155.7066   -13130.478   -13126.487    301.22498    67159.926    95.191053 
    2000   -13288.195    155.93931   -13132.256   -13131.244    301.67517    67159.926    24.132642 
    3000   -13283.459     156.2466   -13127.212   -13115.303    302.26965    67159.926    284.11654 
    4000   -13283.979    153.24033   -13130.739   -13121.989    296.45381    67159.926    208.73273 
    5000   -13286.226    154.03007   -13132.195   -13128.124    297.98161    67159.926     97.14049 
    6000   -13285.222    157.73122   -13127.491   -13116.099    305.14174    67159.926    271.75459 
    7000   -13287.378     151.8384    -13135.54    -13136.16    293.74168    67159.926   -14.799025 
    8000   -13286.575    155.20763   -13131.367   -13124.673    300.25968    67159.926    159.70042 
    9000   -13284.497    156.20309   -13128.294   -13118.339    302.18547    67159.926    237.48033 
   10000   -13287.375    151.77482     -13135.6   -13137.475    293.61868    67159.926    -44.74049 
   11000   -13288.125    156.40074   -13131.724   -13132.784    302.56784    67159.926   -25.287096 
   12000   -13285.026    155.66368   -13129.363   -13124.417    301.14195    67159.926    117.98106 
   13000   -13285.641    154.43158   -13131.209   -13123.957    298.75837    67159.926    173.00031 
   14000   -13287.128    153.54067   -13133.587   -13128.761    297.03483    67159.926    115.12667 
   15000    -13286.53    159.15628   -13127.374   -13121.966    307.89861    67159.926    129.00099 
   16000   -13286.749    155.95865    -13130.79   -13131.164    301.71258    67159.926   -8.9035295 
   17000   -13288.093     157.3915   -13130.702   -13128.466    304.48453    67159.926    53.345329 
   18000   -13283.393    157.74262   -13125.651   -13113.917     305.1638    67159.926    279.91373 
   19000   -13284.281    151.97714   -13132.304   -13128.309    294.01007    67159.926    95.297196 
   20000   -13283.828     155.5342   -13128.293   -13121.815    300.89146    67159.926    154.54075 
   21000   -13283.128    156.91383   -13126.214   -13113.188    303.56044    67159.926    310.74649 
   22000   -13286.627    156.24783   -13130.379   -13126.429    302.27201    67159.926    94.240671 
   23000   -13285.059    152.46332   -13132.595   -13124.316    294.95063    67159.926    197.50486 
   24000   -13284.035    156.55027   -13127.485   -13117.794    302.85711    67159.926    231.19695 
   25000   -13286.638    156.60364   -13130.035    -13128.92    302.96036    67159.926    26.587594 
   26000   -13286.605    153.84896   -13132.756   -13132.328    297.63125    67159.926    10.199489 
   27000   -13283.799    154.71765   -13129.081   -13120.831    299.31178    67159.926      196.817 
   28000   -13286.017    155.29189   -13130.725   -13129.954    300.42269    67159.926    18.398512 
   29000   -13289.478    154.14092   -13135.337   -13141.891    298.19605    67159.926   -156.35217 
   30000    -13284.26    155.58781   -13128.672   -13119.252    300.99517    67159.926     224.7422 
   31000   -13287.239    156.50115   -13130.738   -13129.977    302.76209    67159.926     18.15936 
   32000   -13291.054    156.64636   -13134.408   -13141.143      303.043    67159.926   -160.68813 
   33000   -13284.019    154.09823   -13129.921   -13120.245    298.11348    67159.926    230.82407 
   34000   -13284.747    154.72251   -13130.025   -13125.027    299.32118    67159.926    119.21267 
   35000   -13285.959    151.98473   -13133.974   -13133.443    294.02477    67159.926    12.664186 
   36000   -13285.386     156.6843   -13128.701   -13120.449     303.1164    67159.926    196.86826 
   37000   -13282.299    153.60886    -13128.69   -13118.741    297.16675    67159.926    237.34914 
   38000   -13285.697     152.1482   -13133.548   -13133.671    294.34102    67159.926   -2.9162377 
   39000   -13286.061    150.16172     -13135.9   -13135.988    290.49802    67159.926   -2.1092332 
   40000   -13283.507    155.13748   -13128.369   -13117.986    300.12397    67159.926    247.70251 
   41000   -13285.384    154.76267   -13130.621   -13125.935    299.39888    67159.926    111.79803 
   42000   -13286.849    152.65413   -13134.195   -13132.144    295.31977    67159.926    48.926467 
   43000   -13285.926    155.68421   -13130.242   -13122.664    301.18165    67159.926     180.7762 
   44000    -13285.83    156.31623   -13129.514   -13123.317    302.40434    67159.926    147.82305 
   45000   -13284.588    152.80304   -13131.785   -13125.287    295.60784    67159.926    155.00907 
   46000   -13287.155    154.41094   -13132.744   -13129.959    298.71843    67159.926    66.437335 
   47000   -13283.413    156.58432   -13126.828   -13115.358    302.92299    67159.926    273.62612 
   48000   -13285.842    154.45511   -13131.387    -13127.28    298.80388    67159.926    97.985095 
   49000   -13284.092    152.86303   -13131.229   -13123.989    295.72389    67159.926    172.70552 
   50000    -13284.17    155.61925   -13128.551   -13119.894    301.05598    67159.926    206.52312 
   51000   -13284.839    159.08917    -13125.75   -13114.208    307.76878    67159.926    275.35568 
   52000   -13284.599     151.9162   -13132.682   -13127.393     293.8922    67159.926    126.18144 
   53000   -13282.572    153.27319   -13129.299   -13118.945    296.51738    67159.926    247.00114 
   54000   -13283.071    157.17315   -13125.898   -13111.635    304.06211    67159.926    340.25835 
   55000   -13287.624     157.7371   -13129.887   -13126.429    305.15312    67159.926    82.489309 
   56000   -13286.674    153.62527   -13133.048   -13128.815     297.1985    67159.926    100.99758 
   57000   -13282.147    156.23443   -13125.913   -13110.041     302.2461    67159.926    378.63498 
   58000   -13284.975     154.6508   -13130.324   -13122.383    299.18246    67159.926    189.44582 
   59000   -13285.975    155.04359   -13130.931    -13131.34    299.94234    67159.926   -9.7572124 
   60000    -13283.51     156.0291   -13127.481   -13115.018    301.84887    67159.926    297.31638 
Loop time of 603.055 on 3 procs for 60000 steps with 4000 atoms

Performance: 8.596 ns/day, 2.792 hours/ns, 99.493 timesteps/s
99.8% CPU use with 3 MPI tasks x no OpenMP threads

MPI task timing breakdown:
Section |  min time  |  avg time  |  max time  |%varavg| %total
---------------------------------------------------------------
Pair    | 565.06     | 569.02     | 575.06     |  18.2 | 94.36
Neigh   | 0          | 0          | 0          |   0.0 |  0.00
Comm    | 19.622     | 25.838     | 29.982     |  88.1 |  4.28
Output  | 0.10377    | 0.10411    | 0.10477    |   0.1 |  0.02
Modify  | 5.2945     | 5.3919     | 5.5344     |   4.4 |  0.89
Other   |            | 2.705      |            |       |  0.45

Nlocal:    1333.33 ave 1400 max 1294 min
Histogram: 1 1 0 0 0 0 0 0 0 1
Nghost:    4922.33 ave 4948 max 4877 min
Histogram: 1 0 0 0 0 0 0 0 0 2
Neighs:    92985.3 ave 97748 max 90151 min
Histogram: 1 1 0 0 0 0 0 0 0 1

Total # of neighbors = 278956
Ave neighs/atom = 69.739
Neighbor list builds = 0
Dangerous builds = 0
All done
Total wall time: 0:10:03
