LAMMPS (17 Nov 2016)
Reading data file ...
  orthogonal box = (-0.09995 -0.09995 -0.09995) to (40.5478 40.5478 40.5478)
  1 by 1 by 5 MPI processor grid
  reading atoms ...
  4000 atoms
Neighbor list info ...
  1 neighbor list requests
  update every 1 steps, delay 10 steps, check yes
  max neighbors/atom: 2000, page size: 100000
  master list distance cutoff = 8.28721
  ghost atom cutoff = 8.28721
  binsize = 4.1436, bins = 10 10 10
Setting up Verlet run ...
  Unit style    : metal
  Current step  : 0
  Time step     : 0.001
Memory usage per processor = 3.8835 Mbytes
Step PotEng KinEng TotEng Enthalpy Temp Volume Press 
       0   -13285.092    180.91896   -13104.173   -13079.273          350    67159.926    594.03729 
    1000   -13266.085    177.21286   -13088.872   -13023.994    342.83029    67159.926    1547.7394 
    2000   -13260.758    184.89385   -13075.864   -12992.273     357.6897    67159.926    1994.1641 
    3000   -13258.211    180.95678   -13077.254   -12992.656    350.07317    67159.926    2018.1949 
    4000   -13259.609    176.93125   -13082.678   -13006.356     342.2855    67159.926    1820.7486 
    5000   -13258.426    183.04208   -13075.384   -12988.351    354.10731    67159.926    2076.2708 
    6000   -13257.849    180.35285   -13077.496   -12991.455    348.90482    67159.926    2052.6045 
    7000   -13260.895    181.75083   -13079.145   -13001.077    351.60931    67159.926    1862.3799 
    8000   -13260.666    181.82335   -13078.842   -12998.966    351.74961    67159.926    1905.5476 
    9000   -13257.972    181.89837   -13076.074   -12988.688    351.89474    67159.926    2084.6764 
   10000   -13262.035    179.87512    -13082.16   -13005.002    347.98062    67159.926    1840.6967 
   11000   -13259.099    180.30275   -13078.796   -12996.897     348.8079    67159.926    1953.8006 
   12000   -13256.214      179.961   -13076.253   -12986.824    348.14676    67159.926     2133.444 
   13000   -13264.888    183.11196   -13081.776    -13009.29     354.2425    67159.926    1729.2579 
   14000    -13252.22    178.72329   -13073.497   -12968.939    345.75233    67159.926    2494.3449 
   15000   -13257.418    179.47645   -13077.941   -12990.769    347.20937    67159.926    2079.5845 
   16000   -13263.148    182.74251   -13080.406   -13004.592    353.52778    67159.926    1808.6146 
   17000   -13256.779    183.57235   -13073.207   -12987.751    355.13316    67159.926    2038.6421 
   18000    -13256.29    181.85273   -13074.437   -12984.104    351.80644    67159.926    2155.0011 
   19000   -13260.598    180.78692   -13079.812   -13002.217    349.74456    67159.926    1851.1043 
   20000   -13259.579    179.55149   -13080.027   -12997.196    347.35454    67159.926    1976.0378 
   21000   -13257.473    183.76944   -13073.703   -12989.568    355.51443    67159.926    2007.1367 
   22000   -13259.114    178.05842   -13081.056   -13003.927    344.46609    67159.926    1839.9947 
   23000   -13260.736    182.04316   -13078.693   -13000.435    352.17484    67159.926    1866.9311 
   24000   -13257.164    186.30645   -13070.857   -12983.726    360.42247    67159.926    2078.6256 
   25000   -13261.207    183.56805   -13077.639   -13000.383    355.12483    67159.926    1843.0208 
   26000   -13261.875    181.19706   -13080.678   -13006.663    350.53801    67159.926    1765.6974 
   27000   -13257.978    181.74985   -13076.228   -12990.545    351.60742    67159.926    2044.0646 
   28000    -13259.87    184.00743   -13075.862   -12992.422    355.97485    67159.926    1990.5707 
   29000   -13263.111    181.36725   -13081.744   -13008.622    350.86724    67159.926    1744.4109 
   30000   -13260.028     184.6808   -13075.347   -12990.565    357.27753    67159.926    2022.5862 
   31000   -13261.138    178.90473   -13082.234   -13005.577    346.10333    67159.926    1828.7243 
   32000   -13258.179    177.71382   -13080.465   -12993.598    343.79943    67159.926    2072.3116 
   33000   -13258.642    182.33185    -13076.31   -12993.198    352.73333    67159.926    1982.7186 
   34000   -13263.247    178.19685    -13085.05   -13014.774    344.73388    67159.926    1676.4962 
   35000   -13260.933     177.2474   -13083.685    -13006.57    342.89712    67159.926    1839.6659 
   36000   -13260.666    183.74199   -13076.924    -12992.53    355.46134    67159.926    2013.3288 
   37000   -13258.377    177.99859   -13080.379   -12994.568    344.35034    67159.926    2047.1114 
   38000    -13262.16      179.066   -13083.094   -13006.865    346.41532    67159.926    1818.5435 
   39000   -13260.978    182.63775    -13078.34   -12998.973    353.32511    67159.926    1893.4024 
   40000   -13259.751    180.81006   -13078.941   -12994.883    349.78933    67159.926    2005.2925 
   41000   -13263.257    178.92728   -13084.329   -13009.606    346.14696    67159.926    1782.6181 
   42000   -13255.997    179.35996   -13076.637   -12987.134      346.984    67159.926    2135.1975 
   43000   -13260.579    182.11485   -13078.464   -13001.266    352.31352    67159.926    1841.6373 
   44000   -13263.778    176.16266   -13087.615   -13020.585     340.7986    67159.926    1599.0987 
   45000   -13261.557    179.93553   -13081.622   -13006.335    348.09748    67159.926    1796.0454 
   46000   -13260.127     183.9694   -13076.157   -12992.056    355.90128    67159.926    2006.3354 
   47000   -13257.622    177.47253    -13080.15   -12992.672    343.33265    67159.926    2086.8705 
   48000   -13261.727    179.60726    -13082.12   -13007.062    347.46243    67159.926    1790.5842 
   49000   -13257.173    182.19669   -13074.976   -12985.337    352.47185    67159.926     2138.451 
   50000   -13260.441    179.03471   -13081.406   -13000.389    346.35479    67159.926    1932.7558 
   51000   -13259.767     183.3225   -13076.445   -12993.059     354.6498    67159.926    1989.2752 
   52000   -13257.815    182.21709   -13075.598   -12986.117    352.51132    67159.926    2134.6636 
   53000   -13261.137    180.52374   -13080.613   -13001.175    349.23542    67159.926    1895.0736 
   54000   -13261.942      186.238   -13075.704   -13000.962    360.29004    67159.926    1783.0548 
   55000   -13258.434    184.54314   -13073.891   -12983.464    357.01122    67159.926    2157.2553 
   56000   -13262.597    183.11744    -13079.48   -13003.911     354.2531    67159.926    1802.7819 
   57000   -13261.374    180.96796   -13080.406   -12999.486    350.09479    67159.926    1930.4448 
   58000   -13259.218    185.71159   -13073.506   -12985.533    359.27166    67159.926    2098.6954 
   59000   -13262.689    181.46544   -13081.223   -13004.758     351.0572    67159.926    1824.1635 
   60000   -13262.165    182.69104   -13079.474   -12998.677    353.42821    67159.926    1927.4903 
Loop time of 147.541 on 5 procs for 60000 steps with 4000 atoms

Performance: 35.136 ns/day, 0.683 hours/ns, 406.667 timesteps/s
99.9% CPU use with 5 MPI tasks x no OpenMP threads

MPI task timing breakdown:
Section |  min time  |  avg time  |  max time  |%varavg| %total
---------------------------------------------------------------
Pair    | 131.59     | 133.96     | 138.09     |  19.6 | 90.79
Neigh   | 0          | 0          | 0          |   0.0 |  0.00
Comm    | 7.5524     | 11.531     | 14.005     |  65.3 |  7.82
Output  | 0.026272   | 0.026338   | 0.026525   |   0.1 |  0.02
Modify  | 1.2151     | 1.3378     | 1.4219     |   8.3 |  0.91
Other   |            | 0.6909     |            |       |  0.47

Nlocal:    800 ave 809 max 789 min
Histogram: 1 0 1 0 0 0 1 0 0 2
Nghost:    4585 ave 4600 max 4569 min
Histogram: 1 0 0 0 2 0 1 0 0 1
Neighs:    55791.2 ave 57884 max 54830 min
Histogram: 2 1 0 1 0 0 0 0 0 1

Total # of neighbors = 278956
Ave neighs/atom = 69.739
Neighbor list builds = 0
Dangerous builds = 0
All done
Total wall time: 0:02:27
